-5 	348.432 	100000 	0.999645 	-1.6494e-14 	0 	0
-4.98999 	348.432 	100000 	0.999645 	-1.6494e-14 	0 	0
-4.97998 	348.432 	100000 	0.999645 	-1.6494e-14 	0 	0
-4.96997 	348.432 	100000 	0.999645 	-1.6494e-14 	0 	0
-4.95996 	348.432 	100000 	0.999645 	-1.6494e-14 	0 	0
-4.94995 	348.432 	100000 	0.999645 	-1.65172e-14 	0 	0
-4.93994 	348.432 	100000 	0.999645 	-2.11594e-14 	0 	0
-4.92993 	348.432 	100000 	0.999645 	-2.58015e-14 	0 	0
-4.91992 	348.432 	100000 	0.999645 	-3.04437e-14 	0 	0
-4.90991 	348.432 	100000 	0.999645 	-3.50858e-14 	0 	0
-4.8999 	348.432 	100000 	0.999645 	-3.9728e-14 	0 	0
-4.88989 	348.432 	100000 	0.999645 	-4.43701e-14 	0 	0
-4.87988 	348.432 	100000 	0.999645 	-4.90123e-14 	0 	0
-4.86987 	348.432 	100000 	0.999645 	-5.36544e-14 	0 	0
-4.85986 	348.432 	100000 	0.999645 	-5.82966e-14 	0 	0
-4.84985 	348.432 	100000 	0.999645 	-6.26924e-14 	0 	0
-4.83984 	348.432 	100000 	0.999645 	-5.09131e-14 	0 	0
-4.82983 	348.432 	100000 	0.999645 	-3.91337e-14 	0 	0
-4.81982 	348.432 	100000 	0.999645 	-2.73543e-14 	0 	0
-4.80981 	348.432 	100000 	0.999645 	-1.5575e-14 	0 	0
-4.7998 	348.432 	100000 	0.999645 	-3.79561e-15 	0 	0
-4.78979 	348.432 	100000 	0.999645 	7.98375e-15 	0 	0
-4.77978 	348.432 	100000 	0.999645 	1.97631e-14 	0 	0
-4.76977 	348.432 	100000 	0.999645 	3.15425e-14 	0 	0
-4.75976 	348.432 	100000 	0.999645 	4.33218e-14 	0 	0
-4.74975 	348.432 	100000 	0.999645 	5.4821e-14 	0 	0
-4.73974 	348.432 	100000 	0.999645 	5.53927e-14 	0 	0
-4.72973 	348.432 	100000 	0.999645 	5.59645e-14 	0 	0
-4.71972 	348.432 	100000 	0.999645 	5.65362e-14 	0 	0
-4.70971 	348.432 	100000 	0.999645 	5.71079e-14 	0 	0
-4.6997 	348.432 	100000 	0.999645 	5.76797e-14 	0 	0
-4.68969 	348.432 	100000 	0.999645 	5.82514e-14 	0 	0
-4.67968 	348.432 	100000 	0.999645 	5.88231e-14 	0 	0
-4.66967 	348.432 	100000 	0.999645 	5.93948e-14 	0 	0
-4.65966 	348.432 	100000 	0.999645 	5.99666e-14 	0 	0
-4.64965 	348.432 	100000 	0.999645 	5.99805e-14 	0 	0
-4.63964 	348.432 	100000 	0.999645 	4.46161e-14 	0 	0
-4.62963 	348.432 	100000 	0.999645 	2.92517e-14 	0 	0
-4.61962 	348.432 	100000 	0.999645 	1.38873e-14 	0 	0
-4.60961 	348.432 	100000 	0.999645 	-1.47711e-15 	0 	0
-4.5996 	348.432 	100000 	0.999645 	-1.68415e-14 	0 	0
-4.58959 	348.432 	100000 	0.999645 	-3.22059e-14 	0 	0
-4.57958 	348.432 	100000 	0.999645 	-4.75704e-14 	0 	0
-4.56957 	348.432 	100000 	0.999645 	-6.29348e-14 	0 	0
-4.55956 	348.432 	100000 	0.999645 	-7.82992e-14 	0 	0
-4.54955 	348.432 	100000 	0.999645 	-9.27339e-14 	0 	0
-4.53954 	348.432 	100000 	0.999645 	-8.7438e-14 	0 	0
-4.52953 	348.432 	100000 	0.999645 	-8.2142e-14 	0 	0
-4.51952 	348.432 	100000 	0.999645 	-7.68461e-14 	0 	0
-4.50951 	348.432 	100000 	0.999645 	-7.15502e-14 	0 	0
-4.4995 	348.432 	100000 	0.999645 	-6.62543e-14 	0 	0
-4.48949 	348.432 	100000 	0.999645 	-6.09583e-14 	0 	0
-4.47948 	348.432 	100000 	0.999645 	-5.56624e-14 	0 	0
-4.46947 	348.432 	100000 	0.999645 	-5.03665e-14 	0 	0
-4.45946 	348.432 	100000 	0.999645 	-4.50706e-14 	0 	0
-4.44945 	348.432 	100000 	0.999645 	-4.01212e-14 	0 	0
-4.43944 	348.432 	100000 	0.999645 	-4.11259e-14 	0 	0
-4.42943 	348.432 	100000 	0.999645 	-4.21306e-14 	0 	0
-4.41942 	348.432 	100000 	0.999645 	-4.31353e-14 	0 	0
-4.40941 	348.432 	100000 	0.999645 	-4.414e-14 	0 	0
-4.3994 	348.432 	100000 	0.999645 	-4.51447e-14 	0 	0
-4.38939 	348.432 	100000 	0.999645 	-4.61494e-14 	0 	0
-4.37938 	348.432 	100000 	0.999645 	-4.71541e-14 	0 	0
-4.36937 	348.432 	100000 	0.999645 	-4.81588e-14 	0 	0
-4.35936 	348.432 	100000 	0.999645 	-4.91635e-14 	0 	0
-4.34935 	348.432 	100000 	0.999645 	-4.91143e-14 	0 	0
-4.33934 	348.432 	100000 	0.999645 	-3.39054e-14 	0 	0
-4.32933 	348.432 	100000 	0.999645 	-1.86965e-14 	0 	0
-4.31932 	348.432 	100000 	0.999645 	-3.48762e-15 	0 	0
-4.30931 	348.432 	100000 	0.999645 	1.17213e-14 	0 	0
-4.2993 	348.432 	100000 	0.999645 	2.69302e-14 	0 	0
-4.28929 	348.432 	100000 	0.999645 	4.21391e-14 	0 	0
-4.27928 	348.432 	100000 	0.999645 	5.7348e-14 	0 	0
-4.26927 	348.432 	100000 	0.999645 	7.25569e-14 	0 	0
-4.25926 	348.432 	100000 	0.999645 	8.77658e-14 	0 	0
-4.24925 	348.432 	100000 	0.999645 	1.01116e-13 	0 	0
-4.23924 	348.432 	100000 	0.999645 	9.15367e-14 	0 	0
-4.22923 	348.432 	100000 	0.999645 	8.19578e-14 	0 	0
-4.21922 	348.432 	100000 	0.999645 	7.23789e-14 	0 	0
-4.20921 	348.432 	100000 	0.999645 	6.28e-14 	0 	0
-4.1992 	348.432 	100000 	0.999645 	5.32211e-14 	0 	0
-4.18919 	348.432 	100000 	0.999645 	4.36422e-14 	0 	0
-4.17918 	348.432 	100000 	0.999645 	3.40632e-14 	0 	0
-4.16917 	348.432 	100000 	0.999645 	2.44843e-14 	0 	0
-4.15916 	348.432 	100000 	0.999645 	1.49054e-14 	0 	0
-4.14915 	348.432 	100000 	0.999645 	4.41476e-15 	0 	0
-4.13914 	348.432 	100000 	0.999645 	-1.58909e-14 	0 	0
-4.12913 	348.432 	100000 	0.999645 	-3.61966e-14 	0 	0
-4.11912 	348.432 	100000 	0.999645 	-5.65023e-14 	0 	0
-4.10911 	348.432 	100000 	0.999645 	-7.6808e-14 	0 	0
-4.0991 	348.432 	100000 	0.999645 	-9.71136e-14 	0 	0
-4.08909 	348.432 	100000 	0.999645 	-1.17419e-13 	0 	0
-4.07908 	348.432 	100000 	0.999645 	-1.37725e-13 	0 	0
-4.06907 	348.432 	100000 	0.999645 	-1.58031e-13 	0 	0
-4.05906 	348.432 	100000 	0.999645 	-1.78336e-13 	0 	0
-4.04905 	348.432 	100000 	0.999645 	-1.98508e-13 	0 	0
-4.03904 	348.432 	100000 	0.999645 	-2.17401e-13 	0 	0
-4.02903 	348.432 	100000 	0.999645 	-2.36294e-13 	0 	0
-4.01902 	348.432 	100000 	0.999645 	-2.55187e-13 	0 	0
-4.00901 	348.432 	100000 	0.999645 	-2.7408e-13 	0 	0
-3.999 	348.432 	100000 	0.999645 	-2.92973e-13 	0 	0
-3.98899 	348.432 	100000 	0.999645 	-3.11866e-13 	0 	0
-3.97898 	348.432 	100000 	0.999645 	-3.30759e-13 	0 	0
-3.96897 	348.432 	100000 	0.999645 	-3.49653e-13 	0 	0
-3.95896 	348.432 	100000 	0.999645 	-3.68546e-13 	0 	0
-3.94895 	348.432 	100000 	0.999645 	-3.85422e-13 	0 	0
-3.93894 	348.432 	100000 	0.999645 	-3.85113e-13 	0 	0
-3.92893 	348.432 	100000 	0.999645 	-3.84803e-13 	0 	0
-3.91892 	348.432 	100000 	0.999645 	-3.84494e-13 	0 	0
-3.90891 	348.432 	100000 	0.999645 	-3.84184e-13 	0 	0
-3.8989 	348.432 	100000 	0.999645 	-3.83874e-13 	0 	0
-3.88889 	348.432 	100000 	0.999645 	-3.83565e-13 	0 	0
-3.87888 	348.432 	100000 	0.999645 	-3.83255e-13 	0 	0
-3.86887 	348.432 	100000 	0.999645 	-3.82946e-13 	0 	0
-3.85886 	348.432 	100000 	0.999645 	-3.82636e-13 	0 	0
-3.84885 	348.432 	100000 	0.999645 	-3.79726e-13 	0 	0
-3.83884 	348.432 	100000 	0.999645 	-3.56802e-13 	0 	0
-3.82883 	348.432 	100000 	0.999645 	-3.33879e-13 	0 	0
-3.81882 	348.432 	100000 	0.999645 	-3.10955e-13 	0 	0
-3.80881 	348.432 	100000 	0.999645 	-2.88031e-13 	0 	0
-3.7988 	348.432 	100000 	0.999645 	-2.65108e-13 	0 	0
-3.78879 	348.432 	100000 	0.999645 	-2.42184e-13 	0 	0
-3.77878 	348.432 	100000 	0.999645 	-2.1926e-13 	0 	0
-3.76877 	348.432 	100000 	0.999645 	-1.96337e-13 	0 	0
-3.75876 	348.432 	100000 	0.999645 	-1.73413e-13 	0 	0
-3.74875 	348.432 	100000 	0.999645 	-1.50742e-13 	0 	0
-3.73874 	348.432 	100000 	0.999645 	-1.2984e-13 	0 	0
-3.72873 	348.432 	100000 	0.999645 	-1.08938e-13 	0 	0
-3.71872 	348.432 	100000 	0.999645 	-8.80354e-14 	0 	0
-3.70871 	348.432 	100000 	0.999645 	-6.71331e-14 	0 	0
-3.6987 	348.432 	100000 	0.999645 	-4.62308e-14 	0 	0
-3.68869 	348.432 	100000 	0.999645 	-2.53285e-14 	0 	0
-3.67868 	348.432 	100000 	0.999645 	-4.42624e-15 	0 	0
-3.66867 	348.432 	100000 	0.999645 	1.6476e-14 	0 	0
-3.65866 	348.432 	100000 	0.999645 	3.73783e-14 	0 	0
-3.64865 	348.432 	100000 	0.999645 	5.7017e-14 	0 	0
-3.63864 	348.432 	100000 	0.999645 	6.85595e-14 	0 	0
-3.62863 	348.432 	100000 	0.999645 	8.0102e-14 	0 	0
-3.61862 	348.432 	100000 	0.999645 	9.16444e-14 	0 	0
-3.60861 	348.432 	100000 	0.999645 	1.03187e-13 	0 	0
-3.5986 	348.432 	100000 	0.999645 	1.14729e-13 	0 	0
-3.58859 	348.432 	100000 	0.999645 	1.26272e-13 	0 	0
-3.57858 	348.432 	100000 	0.999645 	1.37814e-13 	0 	0
-3.56857 	348.432 	100000 	0.999645 	1.49357e-13 	0 	0
-3.55856 	348.432 	100000 	0.999645 	1.60899e-13 	0 	0
-3.54855 	348.432 	100000 	0.999645 	1.6832e-13 	0 	0
-3.53854 	348.432 	100000 	0.999645 	1.51438e-13 	0 	0
-3.52853 	348.432 	100000 	0.999645 	1.34556e-13 	0 	0
-3.51852 	348.432 	100000 	0.999645 	1.17674e-13 	0 	0
-3.50851 	348.432 	100000 	0.999645 	1.00792e-13 	0 	0
-3.4985 	348.432 	100000 	0.999645 	8.39102e-14 	0 	0
-3.48849 	348.432 	100000 	0.999645 	6.70283e-14 	0 	0
-3.47848 	348.432 	100000 	0.999645 	5.01463e-14 	0 	0
-3.46847 	348.432 	100000 	0.999645 	3.32643e-14 	0 	0
-3.45846 	348.432 	100000 	0.999645 	1.63823e-14 	0 	0
-3.44845 	348.432 	100000 	0.999645 	-7.656e-16 	0 	0
-3.43844 	348.432 	100000 	0.999645 	-1.93634e-14 	0 	0
-3.42843 	348.432 	100000 	0.999645 	-3.79612e-14 	0 	0
-3.41842 	348.432 	100000 	0.999645 	-5.6559e-14 	0 	0
-3.40841 	348.432 	100000 	0.999645 	-7.51568e-14 	0 	0
-3.3984 	348.432 	100000 	0.999645 	-9.37546e-14 	0 	0
-3.38839 	348.432 	100000 	0.999645 	-1.12352e-13 	0 	0
-3.37838 	348.432 	100000 	0.999645 	-1.3095e-13 	0 	0
-3.36837 	348.432 	100000 	0.999645 	-1.49548e-13 	0 	0
-3.35836 	348.432 	100000 	0.999645 	-1.68146e-13 	0 	0
-3.34835 	348.432 	100000 	0.999645 	-1.81639e-13 	0 	0
-3.33834 	348.432 	100000 	0.999645 	-1.69296e-13 	0 	0
-3.32833 	348.432 	100000 	0.999645 	-1.56954e-13 	0 	0
-3.31832 	348.432 	100000 	0.999645 	-1.44612e-13 	0 	0
-3.30831 	348.432 	100000 	0.999645 	-1.32269e-13 	0 	0
-3.2983 	348.432 	100000 	0.999645 	-1.19927e-13 	0 	0
-3.28829 	348.432 	100000 	0.999645 	-1.07585e-13 	0 	0
-3.27828 	348.432 	100000 	0.999645 	-9.52427e-14 	0 	0
-3.26827 	348.432 	100000 	0.999645 	-8.29004e-14 	0 	0
-3.25826 	348.432 	100000 	0.999645 	-7.05582e-14 	0 	0
-3.24825 	348.432 	100000 	0.999645 	-5.78871e-14 	0 	0
-3.23824 	348.432 	100000 	0.999645 	-4.36662e-14 	0 	0
-3.22823 	348.432 	100000 	0.999645 	-2.94453e-14 	0 	0
-3.21822 	348.432 	100000 	0.999645 	-1.52244e-14 	0 	0
-3.20821 	348.432 	100000 	0.999645 	-1.0035e-15 	0 	0
-3.1982 	348.432 	100000 	0.999645 	1.32174e-14 	0 	0
-3.18819 	348.432 	100000 	0.999645 	2.74383e-14 	0 	0
-3.17818 	348.432 	100000 	0.999645 	4.16592e-14 	0 	0
-3.16817 	348.432 	100000 	0.999645 	5.58801e-14 	0 	0
-3.15816 	348.432 	100000 	0.999645 	7.01011e-14 	0 	0
-3.14815 	348.432 	100000 	0.999645 	8.35233e-14 	0 	0
-3.13814 	348.432 	100000 	0.999645 	9.3427e-14 	0 	0
-3.12813 	348.432 	100000 	0.999645 	1.03331e-13 	0 	0
-3.11812 	348.432 	100000 	0.999645 	1.13234e-13 	0 	0
-3.10811 	348.432 	100000 	0.999645 	1.23138e-13 	0 	0
-3.0981 	348.432 	100000 	0.999645 	1.33042e-13 	0 	0
-3.08809 	348.432 	100000 	0.999645 	1.42945e-13 	0 	0
-3.07808 	348.432 	100000 	0.999645 	1.52849e-13 	0 	0
-3.06807 	348.432 	100000 	0.999645 	1.62753e-13 	0 	0
-3.05806 	348.432 	100000 	0.999645 	1.72657e-13 	0 	0
-3.04805 	348.432 	100000 	0.999645 	1.76719e-13 	0 	0
-3.03804 	348.432 	100000 	0.999645 	1.5667e-13 	0 	0
-3.02803 	348.432 	100000 	0.999645 	1.3662e-13 	0 	0
-3.01802 	348.432 	100000 	0.999645 	1.1657e-13 	0 	0
-3.00801 	348.432 	100000 	0.999645 	9.65207e-14 	0 	0
-2.998 	348.432 	100000 	0.999645 	7.6471e-14 	0 	0
-2.98799 	348.432 	100000 	0.999645 	5.64214e-14 	0 	0
-2.97798 	348.432 	100000 	0.999645 	3.63717e-14 	0 	0
-2.96797 	348.432 	100000 	0.999645 	1.6322e-14 	0 	0
-2.95796 	348.432 	100000 	0.999645 	-3.72762e-15 	0 	0
-2.94795 	348.432 	100000 	0.999645 	-2.30525e-14 	0 	0
-2.93794 	348.432 	100000 	0.999645 	-3.95665e-14 	0 	0
-2.92793 	348.432 	100000 	0.999645 	-5.60805e-14 	0 	0
-2.91792 	348.432 	100000 	0.999645 	-7.25945e-14 	0 	0
-2.90791 	348.432 	100000 	0.999645 	-8.91085e-14 	0 	0
-2.8979 	348.432 	100000 	0.999645 	-1.05622e-13 	0 	0
-2.88789 	348.432 	100000 	0.999645 	-1.22136e-13 	0 	0
-2.87788 	348.432 	100000 	0.999645 	-1.3865e-13 	0 	0
-2.86787 	348.432 	100000 	0.999645 	-1.55165e-13 	0 	0
-2.85786 	348.432 	100000 	0.999645 	-1.71679e-13 	0 	0
-2.84785 	348.432 	100000 	0.999645 	-1.81824e-13 	0 	0
-2.83784 	348.432 	100000 	0.999645 	-1.68718e-13 	0 	0
-2.82783 	348.432 	100000 	0.999645 	-1.55613e-13 	0 	0
-2.81782 	348.432 	100000 	0.999645 	-1.42507e-13 	0 	0
-2.80781 	348.432 	100000 	0.999645 	-1.29401e-13 	0 	0
-2.7978 	348.432 	100000 	0.999645 	-1.16295e-13 	0 	0
-2.78779 	348.432 	100000 	0.999645 	-1.0319e-13 	0 	0
-2.77778 	348.432 	100000 	0.999645 	-9.00839e-14 	0 	0
-2.76777 	348.432 	100000 	0.999645 	-7.69781e-14 	0 	0
-2.75776 	348.432 	100000 	0.999645 	-6.38724e-14 	0 	0
-2.74775 	348.432 	100000 	0.999645 	-4.94963e-14 	0 	0
-2.73774 	348.432 	100000 	0.999645 	-3.07447e-14 	0 	0
-2.72773 	348.432 	100000 	0.999645 	-1.19931e-14 	0 	0
-2.71772 	348.432 	100000 	0.999645 	6.75848e-15 	0 	0
-2.70771 	348.432 	100000 	0.999645 	2.55101e-14 	0 	0
-2.6977 	348.432 	100000 	0.999645 	4.42617e-14 	0 	0
-2.68769 	348.432 	100000 	0.999645 	6.30133e-14 	0 	0
-2.67768 	348.432 	100000 	0.999645 	8.17648e-14 	0 	0
-2.66767 	348.432 	100000 	0.999645 	1.00516e-13 	0 	0
-2.65766 	348.432 	100000 	0.999645 	1.19268e-13 	0 	0
-2.64765 	348.432 	100000 	0.999645 	1.38007e-13 	0 	0
-2.63764 	348.432 	100000 	0.999645 	1.56704e-13 	0 	0
-2.62763 	348.432 	100000 	0.999645 	1.75401e-13 	0 	0
-2.61762 	348.432 	100000 	0.999645 	1.94099e-13 	0 	0
-2.60761 	348.432 	100000 	0.999645 	2.12796e-13 	0 	0
-2.5976 	348.432 	100000 	0.999645 	2.31493e-13 	0 	0
-2.58759 	348.432 	100000 	0.999645 	2.50191e-13 	0 	0
-2.57758 	348.432 	100000 	0.999645 	2.68888e-13 	0 	0
-2.56757 	348.432 	100000 	0.999645 	2.87585e-13 	0 	0
-2.55756 	348.432 	100000 	0.999645 	3.06283e-13 	0 	0
-2.54755 	348.432 	100000 	0.999645 	3.17366e-13 	0 	0
-2.53754 	348.432 	100000 	0.999645 	3.04989e-13 	0 	0
-2.52753 	348.432 	100000 	0.999645 	2.92611e-13 	0 	0
-2.51752 	348.432 	100000 	0.999645 	2.80233e-13 	0 	0
-2.50751 	348.432 	100000 	0.999645 	2.67855e-13 	0 	0
-2.4975 	348.432 	100000 	0.999645 	2.55477e-13 	0 	0
-2.48749 	348.432 	100000 	0.999645 	2.43099e-13 	0 	0
-2.47748 	348.432 	100000 	0.999645 	2.30721e-13 	0 	0
-2.46747 	348.432 	100000 	0.999645 	2.18343e-13 	0 	0
-2.45746 	348.432 	100000 	0.999645 	2.05966e-13 	0 	0
-2.44745 	348.432 	100000 	0.999645 	1.91698e-13 	0 	0
-2.43744 	348.432 	100000 	0.999645 	1.71908e-13 	0 	0
-2.42743 	348.432 	100000 	0.999645 	1.52119e-13 	0 	0
-2.41742 	348.432 	100000 	0.999645 	1.3233e-13 	0 	0
-2.40741 	348.432 	100000 	0.999645 	1.12541e-13 	0 	0
-2.3974 	348.432 	100000 	0.999645 	9.27513e-14 	0 	0
-2.38739 	348.432 	100000 	0.999645 	7.29621e-14 	0 	0
-2.37738 	348.432 	100000 	0.999645 	5.31728e-14 	0 	0
-2.36737 	348.432 	100000 	0.999645 	3.33835e-14 	0 	0
-2.35736 	348.432 	100000 	0.999645 	1.35942e-14 	0 	0
-2.34735 	348.432 	100000 	0.999645 	-4.43143e-15 	0 	0
-2.33734 	348.432 	100000 	0.999645 	-1.75655e-14 	0 	0
-2.32733 	348.432 	100000 	0.999645 	-3.06995e-14 	0 	0
-2.31732 	348.432 	100000 	0.999645 	-4.38336e-14 	0 	0
-2.30731 	348.432 	100000 	0.999645 	-5.69676e-14 	0 	0
-2.2973 	348.432 	100000 	0.999645 	-7.01016e-14 	0 	0
-2.28729 	348.432 	100000 	0.999645 	-8.32357e-14 	0 	0
-2.27728 	348.432 	100000 	0.999645 	-9.63697e-14 	0 	0
-2.26727 	348.432 	100000 	0.999645 	-1.09504e-13 	0 	0
-2.25726 	348.432 	100000 	0.999645 	-1.22638e-13 	0 	0
-2.24725 	348.432 	100000 	0.999645 	-1.28006e-13 	0 	0
-2.23724 	348.432 	100000 	0.999645 	-1.12899e-13 	0 	0
-2.22723 	348.432 	100000 	0.999645 	-9.77928e-14 	0 	0
-2.21722 	348.432 	100000 	0.999645 	-8.26863e-14 	0 	0
-2.20721 	348.432 	100000 	0.999645 	-6.75798e-14 	0 	0
-2.1972 	348.432 	100000 	0.999645 	-5.24733e-14 	0 	0
-2.18719 	348.432 	100000 	0.999645 	-3.73669e-14 	0 	0
-2.17718 	348.432 	100000 	0.999645 	-2.22604e-14 	0 	0
-2.16717 	348.432 	100000 	0.999645 	-7.15391e-15 	0 	0
-2.15716 	348.432 	100000 	0.999645 	7.95257e-15 	0 	0
-2.14715 	348.432 	100000 	0.999645 	2.95955e-14 	0 	0
-2.13714 	348.432 	100000 	0.999645 	6.76367e-14 	0 	0
-2.12713 	348.432 	100000 	0.999645 	1.05678e-13 	0 	0
-2.11712 	348.432 	100000 	0.999645 	1.43719e-13 	0 	0
-2.10711 	348.432 	100000 	0.999645 	1.81761e-13 	0 	0
-2.0971 	348.432 	100000 	0.999645 	2.19802e-13 	0 	0
-2.08709 	348.432 	100000 	0.999645 	2.57843e-13 	0 	0
-2.07708 	348.432 	100000 	0.999645 	2.95884e-13 	0 	0
-2.06707 	348.432 	100000 	0.999645 	3.33926e-13 	0 	0
-2.05706 	348.432 	100000 	0.999645 	3.71967e-13 	0 	0
-2.04705 	348.432 	100000 	0.999645 	4.0195e-13 	0 	0
-2.03704 	348.432 	100000 	0.999645 	4.12676e-13 	0 	0
-2.02703 	348.432 	100000 	0.999645 	4.23403e-13 	0 	0
-2.01702 	348.432 	100000 	0.999645 	4.34129e-13 	0 	0
-2.00701 	348.432 	100000 	0.999645 	4.44855e-13 	0 	0
-1.997 	348.432 	100000 	0.999645 	4.55581e-13 	0 	0
-1.98699 	348.432 	100000 	0.999645 	4.66308e-13 	0 	0
-1.97698 	348.432 	100000 	0.999645 	4.77034e-13 	0 	0
-1.96697 	348.432 	100000 	0.999645 	4.8776e-13 	0 	0
-1.95696 	348.432 	100000 	0.999645 	4.98486e-13 	0 	0
-1.94695 	348.432 	100000 	0.999645 	4.98441e-13 	0 	0
-1.93694 	348.432 	100000 	0.999645 	4.73852e-13 	0 	0
-1.92693 	348.432 	100000 	0.999645 	4.49263e-13 	0 	0
-1.91692 	348.432 	100000 	0.999645 	4.24674e-13 	0 	0
-1.90691 	348.432 	100000 	0.999645 	4.00085e-13 	0 	0
-1.8969 	348.432 	100000 	0.999645 	3.75496e-13 	0 	0
-1.88689 	348.432 	100000 	0.999645 	3.50907e-13 	0 	0
-1.87688 	348.432 	100000 	0.999645 	3.26318e-13 	0 	0
-1.86687 	348.432 	100000 	0.999645 	3.01729e-13 	0 	0
-1.85686 	348.432 	100000 	0.999645 	2.7714e-13 	0 	0
-1.84685 	348.432 	100000 	0.999645 	2.52426e-13 	0 	0
-1.83684 	348.432 	100000 	0.999645 	2.27444e-13 	0 	0
-1.82683 	348.432 	100000 	0.999645 	2.02461e-13 	0 	0
-1.81682 	348.432 	100000 	0.999645 	1.77478e-13 	0 	0
-1.80681 	348.432 	100000 	0.999645 	1.52495e-13 	0 	0
-1.7968 	348.432 	100000 	0.999645 	1.27513e-13 	0 	0
-1.78679 	348.432 	100000 	0.999645 	1.0253e-13 	0 	0
-1.77678 	348.432 	100000 	0.999645 	7.75472e-14 	0 	0
-1.76677 	348.432 	100000 	0.999645 	5.25644e-14 	0 	0
-1.75676 	348.432 	100000 	0.999645 	2.75817e-14 	0 	0
-1.74675 	348.432 	100000 	0.999645 	6.93973e-15 	0 	0
-1.73674 	348.432 	100000 	0.999645 	-4.68662e-15 	0 	0
-1.72673 	348.432 	100000 	0.999645 	-1.6313e-14 	0 	0
-1.71672 	348.432 	100000 	0.999645 	-2.79393e-14 	0 	0
-1.70671 	348.432 	100000 	0.999645 	-3.95657e-14 	0 	0
-1.6967 	348.432 	100000 	0.999645 	-5.1192e-14 	0 	0
-1.68669 	348.432 	100000 	0.999645 	-6.28184e-14 	0 	0
-1.67668 	348.432 	100000 	0.999645 	-7.44448e-14 	0 	0
-1.66667 	348.432 	100000 	0.999645 	-8.60711e-14 	0 	0
-1.65666 	348.432 	100000 	0.999645 	-9.76975e-14 	0 	0
-1.64665 	348.432 	100000 	0.999645 	-1.01271e-13 	0 	0
-1.63664 	348.432 	100000 	0.999645 	-8.88596e-14 	0 	0
-1.62663 	348.432 	100000 	0.999645 	-7.6448e-14 	0 	0
-1.61662 	348.432 	100000 	0.999645 	-6.40364e-14 	0 	0
-1.60661 	348.432 	100000 	0.999645 	-5.16248e-14 	0 	0
-1.5966 	348.432 	100000 	0.999645 	-3.92133e-14 	0 	0
-1.58659 	348.432 	100000 	0.999645 	-2.68017e-14 	0 	0
-1.57658 	348.432 	100000 	0.999645 	-1.43901e-14 	0 	0
-1.56657 	348.432 	100000 	0.999645 	-1.97855e-15 	0 	0
-1.55656 	348.432 	100000 	0.999645 	1.0433e-14 	0 	0
-1.54655 	348.432 	100000 	0.999645 	2.24001e-14 	0 	0
-1.53654 	348.432 	100000 	0.999645 	3.35234e-14 	0 	0
-1.52653 	348.432 	100000 	0.999645 	4.46467e-14 	0 	0
-1.51652 	348.432 	100000 	0.999645 	5.57699e-14 	0 	0
-1.50651 	348.432 	100000 	0.999645 	6.68932e-14 	0 	0
-1.4965 	348.432 	100000 	0.999645 	7.80164e-14 	0 	0
-1.48649 	348.432 	100000 	0.999645 	8.91397e-14 	0 	0
-1.47648 	348.432 	100000 	0.999645 	1.00263e-13 	0 	0
-1.46647 	348.432 	100000 	0.999645 	1.11386e-13 	0 	0
-1.45646 	348.432 	100000 	0.999645 	1.22509e-13 	0 	0
-1.44645 	348.432 	100000 	0.999645 	1.37456e-13 	0 	0
-1.43644 	348.432 	100000 	0.999645 	1.5935e-13 	0 	0
-1.42643 	348.432 	100000 	0.999645 	1.81244e-13 	0 	0
-1.41642 	348.432 	100000 	0.999645 	2.03137e-13 	0 	0
-1.40641 	348.432 	100000 	0.999645 	2.25031e-13 	0 	0
-1.3964 	348.432 	100000 	0.999645 	2.46925e-13 	0 	0
-1.38639 	348.432 	100000 	0.999645 	2.68818e-13 	0 	0
-1.37638 	348.432 	100000 	0.999645 	2.90712e-13 	0 	0
-1.36637 	348.432 	100000 	0.999645 	3.12606e-13 	0 	0
-1.35636 	348.432 	100000 	0.999645 	3.345e-13 	0 	0
-1.34635 	348.432 	100000 	0.999645 	3.0562e-10 	0 	0
-1.33634 	348.432 	100000 	0.999645 	1.14198e-09 	0 	0
-1.32633 	348.432 	100000 	0.999645 	1.97834e-09 	0 	0
-1.31632 	348.432 	100000 	0.999645 	2.8147e-09 	0 	0
-1.30631 	348.432 	100000 	0.999645 	3.65107e-09 	0 	0
-1.2963 	348.432 	100000 	0.999645 	4.48743e-09 	0 	0
-1.28629 	348.432 	100000 	0.999645 	5.32379e-09 	0 	0
-1.27628 	348.432 	100000 	0.999645 	6.16015e-09 	0 	0
-1.26627 	348.432 	100000 	0.999645 	6.99651e-09 	0 	0
-1.25626 	348.432 	100000 	0.999645 	7.83287e-09 	0 	0
-1.24625 	348.432 	100000 	0.999645 	1.43808e-06 	0 	0
-1.23624 	348.432 	100000 	0.999645 	5.25066e-06 	0 	0
-1.22623 	348.432 	100000 	0.999645 	9.06325e-06 	0 	0
-1.21622 	348.432 	100000 	0.999645 	1.28758e-05 	0 	0
-1.20621 	348.432 	100000 	0.999645 	1.66884e-05 	0 	0
-1.1962 	348.432 	100000 	0.999645 	2.0501e-05 	0 	0
-1.18619 	348.432 	100000 	0.999645 	2.43136e-05 	0 	0
-1.17618 	348.432 	100000 	0.999645 	2.81262e-05 	0 	0
-1.16617 	348.432 	100000 	0.999645 	3.19388e-05 	0 	0
-1.15616 	348.432 	100000 	0.999645 	3.57514e-05 	0 	0
-1.14615 	348.432 	99999.8 	0.999644 	0.000577196 	0 	0
-1.13614 	348.431 	99999.3 	0.99964 	0.00197746 	0 	0
-1.12613 	348.431 	99998.8 	0.999636 	0.00337772 	0 	0
-1.11612 	348.43 	99998.2 	0.999632 	0.00477798 	0 	0
-1.10611 	348.43 	99997.7 	0.999629 	0.00617824 	0 	0
-1.0961 	348.429 	99997.2 	0.999625 	0.0075785 	0 	0
-1.08609 	348.429 	99996.7 	0.999621 	0.00897876 	0 	0
-1.07608 	348.428 	99996.2 	0.999618 	0.010379 	0 	0
-1.06607 	348.428 	99995.6 	0.999614 	0.0117793 	0 	0
-1.05606 	348.427 	99995.1 	0.99961 	0.0131795 	0 	0
-1.04605 	348.418 	99985.3 	0.99954 	0.0394622 	0 	0
-1.03604 	348.394 	99961.2 	0.999368 	0.103856 	0 	0
-1.02603 	348.37 	99937.1 	0.999195 	0.16825 	0 	0
-1.01602 	348.346 	99913.1 	0.999023 	0.232643 	0 	0
-1.00601 	348.322 	99889 	0.99885 	0.297037 	0 	0
-0.995996 	348.298 	99864.9 	0.998678 	0.361431 	0 	0
-0.985986 	348.275 	99840.8 	0.998506 	0.425825 	0 	0
-0.975976 	348.251 	99816.8 	0.998333 	0.490218 	0 	0
-0.965966 	348.227 	99792.7 	0.998161 	0.554612 	0 	0
-0.955956 	348.203 	99768.6 	0.997989 	0.619006 	0 	0
-0.945946 	348.1 	99665.1 	0.997244 	0.898148 	0 	0
-0.935936 	347.881 	99444.8 	0.99566 	1.49278 	0 	0
-0.925926 	347.661 	99224.6 	0.994076 	2.08742 	0 	0
-0.915916 	347.442 	99004.3 	0.992492 	2.68206 	0 	0
-0.905906 	347.222 	98784.1 	0.990907 	3.27669 	0 	0
-0.895896 	347.002 	98563.8 	0.989323 	3.87133 	0 	0
-0.885886 	346.783 	98343.5 	0.987739 	4.46597 	0 	0
-0.875876 	346.563 	98123.3 	0.986154 	5.0606 	0 	0
-0.865866 	346.344 	97903 	0.98457 	5.65524 	0 	0
-0.855856 	346.124 	97682.8 	0.982986 	6.24988 	0 	0
-0.845846 	345.723 	97289.7 	0.980137 	7.33746 	0 	0
-0.835836 	345.066 	96652.9 	0.975506 	9.11993 	0 	0
-0.825826 	344.408 	96016.2 	0.970874 	10.9024 	0 	0
-0.815816 	343.75 	95379.4 	0.966243 	12.6849 	0 	0
-0.805806 	343.093 	94742.7 	0.961611 	14.4673 	0 	0
-0.795796 	342.435 	94105.9 	0.95698 	16.2498 	0 	0
-0.785786 	341.778 	93469.2 	0.952348 	18.0323 	0 	0
-0.775776 	341.12 	92832.4 	0.947717 	19.8147 	0 	0
-0.765766 	340.463 	92195.7 	0.943086 	21.5972 	0 	0
-0.755756 	339.805 	91558.9 	0.938454 	23.3797 	0 	0
-0.745746 	338.998 	90803.9 	0.932897 	25.5765 	0 	0
-0.735736 	337.988 	89888.9 	0.926089 	28.3341 	0 	0
-0.725726 	336.978 	88973.8 	0.919281 	31.0916 	0 	0
-0.715716 	335.968 	88058.8 	0.912472 	33.8491 	0 	0
-0.705706 	334.959 	87143.8 	0.905664 	36.6067 	0 	0
-0.695696 	333.949 	86228.7 	0.898855 	39.3642 	0 	0
-0.685686 	332.939 	85313.7 	0.892047 	42.1217 	0 	0
-0.675676 	331.929 	84398.7 	0.885239 	44.8792 	0 	0
-0.665666 	330.919 	83483.6 	0.87843 	47.6368 	0 	0
-0.655656 	329.91 	82568.6 	0.871622 	50.3943 	0 	0
-0.645646 	328.84 	81635.6 	0.864579 	53.3366 	0 	0
-0.635636 	327.692 	80679.1 	0.857232 	56.5188 	0 	0
-0.625626 	326.545 	79722.7 	0.849885 	59.701 	0 	0
-0.615616 	325.397 	78766.2 	0.842538 	62.8832 	0 	0
-0.605606 	324.25 	77809.8 	0.83519 	66.0655 	0 	0
-0.595596 	323.102 	76853.4 	0.827843 	69.2477 	0 	0
-0.585586 	321.955 	75896.9 	0.820496 	72.4299 	0 	0
-0.575576 	320.807 	74940.5 	0.813149 	75.6121 	0 	0
-0.565566 	319.659 	73984.1 	0.805802 	78.7943 	0 	0
-0.555556 	318.512 	73027.6 	0.798455 	81.9766 	0 	0
-0.545546 	317.348 	72096.9 	0.791193 	85.2308 	0 	0
-0.535536 	316.165 	71198.3 	0.784038 	88.5749 	0 	0
-0.525526 	314.982 	70299.7 	0.776882 	91.919 	0 	0
-0.515516 	313.798 	69401.1 	0.769727 	95.263 	0 	0
-0.505506 	312.615 	68502.5 	0.762572 	98.6071 	0 	0
-0.495495 	311.431 	67603.9 	0.755417 	101.951 	0 	0
-0.485485 	310.248 	66705.3 	0.748261 	105.295 	0 	0
-0.475475 	309.065 	65806.7 	0.741106 	108.639 	0 	0
-0.465465 	307.881 	64908.1 	0.733951 	111.983 	0 	0
-0.455455 	306.698 	64009.4 	0.726796 	115.327 	0 	0
-0.445445 	305.508 	63145.3 	0.719802 	118.712 	0 	0
-0.435435 	304.31 	62322.6 	0.713001 	122.143 	0 	0
-0.425425 	303.113 	61499.8 	0.706201 	125.575 	0 	0
-0.415415 	301.915 	60677.1 	0.6994 	129.007 	0 	0
-0.405405 	300.717 	59854.3 	0.6926 	132.439 	0 	0
-0.395395 	299.52 	59031.5 	0.685799 	135.871 	0 	0
-0.385385 	298.322 	58208.8 	0.678999 	139.303 	0 	0
-0.375375 	297.124 	57386 	0.672198 	142.735 	0 	0
-0.365365 	295.926 	56563.2 	0.665398 	146.167 	0 	0
-0.355355 	294.729 	55740.5 	0.658597 	149.599 	0 	0
-0.345345 	293.527 	54953 	0.651973 	153.075 	0 	0
-0.335335 	292.32 	54206 	0.645551 	156.602 	0 	0
-0.325325 	291.112 	53459 	0.639129 	160.128 	0 	0
-0.315315 	289.905 	52712 	0.632707 	163.655 	0 	0
-0.305305 	288.698 	51965 	0.626285 	167.182 	0 	0
-0.295295 	287.491 	51218 	0.619863 	170.709 	0 	0
-0.285285 	286.284 	50471 	0.613441 	174.235 	0 	0
-0.275275 	285.077 	49724 	0.607019 	177.762 	0 	0
-0.265265 	283.87 	48977.1 	0.600597 	181.289 	0 	0
-0.255255 	282.663 	48230.1 	0.594175 	184.815 	0 	0
-0.245245 	281.449 	47512.9 	0.587878 	188.378 	0 	0
-0.235235 	280.227 	46828.6 	0.581719 	191.98 	0 	0
-0.225225 	279.006 	46144.2 	0.57556 	195.582 	0 	0
-0.215215 	277.784 	45459.9 	0.569401 	199.185 	0 	0
-0.205205 	276.563 	44775.6 	0.563242 	202.787 	0 	0
-0.195195 	275.341 	44091.3 	0.557083 	206.389 	0 	0
-0.185185 	274.12 	43407 	0.550924 	209.991 	0 	0
-0.175175 	272.898 	42722.7 	0.544766 	213.593 	0 	0
-0.165165 	271.677 	42038.4 	0.538607 	217.196 	0 	0
-0.155155 	270.455 	41354.1 	0.532448 	220.798 	0 	0
-0.145145 	269.289 	40726.4 	0.526669 	224.458 	0 	0
-0.135135 	268.18 	40158.7 	0.521294 	228.179 	0 	0
-0.125125 	267.072 	39591 	0.515919 	231.9 	0 	0
-0.115115 	265.964 	39023.3 	0.510544 	235.621 	0 	0
-0.105105 	264.856 	38455.6 	0.505169 	239.342 	0 	0
-0.0950951 	263.747 	37887.9 	0.499794 	243.063 	0 	0
-0.0850851 	262.639 	37320.2 	0.494419 	246.784 	0 	0
-0.0750751 	261.531 	36752.5 	0.489044 	250.506 	0 	0
-0.0650651 	260.423 	36184.8 	0.483669 	254.227 	0 	0
-0.0550551 	259.315 	35617.1 	0.478294 	257.948 	0 	0
-0.045045 	258.167 	35098.4 	0.47344 	261.249 	0 	0
-0.035035 	256.98 	34629.8 	0.469116 	264.123 	0 	0
-0.025025 	255.793 	34161.2 	0.464792 	266.996 	0 	0
-0.015015 	254.605 	33692.6 	0.460468 	269.869 	0 	0
-0.00500501 	253.418 	33224 	0.456144 	272.742 	0 	0
0.00500501 	252.231 	32755.5 	0.451821 	275.616 	0 	0
0.015015 	251.044 	32286.9 	0.447497 	278.489 	0 	0
0.025025 	249.856 	31818.3 	0.443173 	281.362 	0 	0
0.035035 	248.669 	31349.7 	0.438849 	284.235 	0 	0
0.045045 	247.482 	30881.1 	0.434525 	287.109 	0 	0
0.0550551 	246.923 	30586.7 	0.431457 	289.111 	0 	0
0.0650651 	246.98 	30463.2 	0.429619 	290.26 	0 	0
0.0750751 	247.036 	30339.6 	0.427781 	291.408 	0 	0
0.0850851 	247.093 	30216.1 	0.425943 	292.557 	0 	0
0.0950951 	247.15 	30092.6 	0.424105 	293.705 	0 	0
0.105105 	247.207 	29969 	0.422267 	294.854 	0 	0
0.115115 	247.264 	29845.5 	0.420429 	296.002 	0 	0
0.125125 	247.321 	29722 	0.418591 	297.151 	0 	0
0.135135 	247.378 	29598.4 	0.416752 	298.299 	0 	0
0.145145 	247.434 	29474.9 	0.414914 	299.448 	0 	0
0.155155 	247.695 	29467.1 	0.414361 	299.583 	0 	0
0.165165 	248.147 	29568.4 	0.415017 	298.764 	0 	0
0.175175 	248.6 	29669.6 	0.415673 	297.945 	0 	0
0.185185 	249.052 	29770.8 	0.416329 	297.126 	0 	0
0.195195 	249.504 	29872.1 	0.416985 	296.307 	0 	0
0.205205 	249.957 	29973.3 	0.417641 	295.488 	0 	0
0.215215 	250.409 	30074.5 	0.418297 	294.669 	0 	0
0.225225 	250.861 	30175.8 	0.418953 	293.85 	0 	0
0.235235 	251.314 	30277 	0.419609 	293.031 	0 	0
0.245245 	251.766 	30378.2 	0.420265 	292.212 	0 	0
0.255255 	252.293 	30425.1 	0.420052 	291.853 	0 	0
0.265265 	252.888 	30423 	0.419053 	291.911 	0 	0
0.275275 	253.482 	30420.8 	0.418054 	291.969 	0 	0
0.285285 	254.077 	30418.6 	0.417055 	292.027 	0 	0
0.295295 	254.672 	30416.4 	0.416056 	292.085 	0 	0
0.305305 	255.266 	30414.2 	0.415056 	292.143 	0 	0
0.315315 	255.861 	30412 	0.414057 	292.201 	0 	0
0.325325 	256.455 	30409.8 	0.413058 	292.259 	0 	0
0.335335 	257.05 	30407.6 	0.412059 	292.317 	0 	0
0.345345 	257.645 	30405.4 	0.41106 	292.375 	0 	0
0.355355 	258.712 	30405.2 	0.409414 	292.47 	0 	0
0.365365 	260.191 	30406.8 	0.407207 	292.597 	0 	0
0.375375 	261.67 	30408.3 	0.405 	292.725 	0 	0
0.385385 	263.148 	30409.8 	0.402793 	292.852 	0 	0
0.395395 	264.627 	30411.3 	0.400586 	292.979 	0 	0
0.405405 	266.106 	30412.9 	0.398379 	293.107 	0 	0
0.415415 	267.585 	30414.4 	0.396172 	293.234 	0 	0
0.425425 	269.064 	30415.9 	0.393965 	293.361 	0 	0
0.435435 	270.542 	30417.5 	0.391758 	293.489 	0 	0
0.445445 	272.021 	30419 	0.389551 	293.616 	0 	0
0.455455 	274.345 	30424.7 	0.386487 	293.736 	0 	0
0.465465 	277.375 	30433.9 	0.382706 	293.85 	0 	0
0.475475 	280.405 	30443 	0.378925 	293.964 	0 	0
0.485485 	283.435 	30452.2 	0.375144 	294.079 	0 	0
0.495495 	286.465 	30461.3 	0.371364 	294.193 	0 	0
0.505506 	289.496 	30470.5 	0.367583 	294.307 	0 	0
0.515516 	292.526 	30479.6 	0.363802 	294.421 	0 	0