# Probe 0 (0 0 0)
# Probe 1 (-0.449 0.093 0.031)
# Probe 2 (-0.449 0.299 0.031)
# Probe 3 (-0.425 0.508 0.031)
# Probe 4 (0.4 0.508 0.031)
# Probe 5 (-0.449 0.483 0.031)
# Probe 6 (0.449 0.222 0.031)
#             Probe                   0                   1                   2                   3                   4                   5                   6
#              Time
  0.000119904076739       236.916165877      -316.889716449      -231.665181513      -136.422993475       119.036477089        -165.4217435       259.888091141
  0.000263650750869        1376.9221338       268.474462065       193.393180859       111.633344497      -97.5829326308       135.088052004      -206.282045861
  0.000436346407984        868.67719402       4.59339392518       2.49068693952      -0.19575039937     0.0511183515191      0.410834556192       3.16716682902
  0.000643725711716       866.955384813        4.7457119122       2.37854947105    -0.0793310017129    -0.0516789920613      0.196176604135       3.24333594132
  0.000892999824283       866.832241923       4.80988174721       2.37309177002    -0.0677018588814     -0.055473455036      0.185335357856       3.25189276113
   0.00119243275218       866.789629459       4.80893381639          2.37097822    -0.0636695816067    -0.0572130813925       0.18167899759       3.25439127951
   0.00155131192312       866.770136687       4.81278783104       2.36973665035    -0.0619596229075    -0.0582254752751      0.179782811719       3.25523056295
   0.00198006137513       866.760205192       4.81520483031       2.36919784239    -0.0609231276304    -0.0586542774059      0.178939042577       3.25572266898
   0.00249640480121       866.755072119       4.81691564468       2.36891301029    -0.0602889692972    -0.0588774753969      0.178466697043       3.25599626259
   0.00311333460898       866.751689268       4.81783092945       2.36873952592    -0.0598963432916      -0.05902139892      0.178196576092       3.25616568552
   0.00385756739297       866.749646322       4.81839619301       2.36863902642    -0.0596302197847    -0.0591286787084      0.178044085547       3.25624731521
   0.00474492186618       866.748452391        4.8187213825       2.36859268493    -0.0594533198791    -0.0592258499935      0.177960699446       3.25626458731
   0.00579736554371       866.747603477        4.8188047206       2.36855672492    -0.0593404483633    -0.0592594088448      0.177903726592       3.25630150733
   0.00706029795675       862.858265267       2.82371880656      0.921061005409     -0.902685386649      0.677813283241     -0.846385747139       4.84403535876
   0.00859385874401       866.443626138       4.66863576204       2.26034029446     -0.120878127141   -0.00603635547483      0.100270480719       3.37393861418
    0.0103941257551       866.972366488       4.93671988564       2.45701917188   -0.00619708767204     -0.105383666816      0.239847830616       3.15920361528
    0.0125944521021       866.874998563       4.88205823519        2.4195998509      -0.02838238324    -0.0859868247088      0.213730535563        3.2004436806
    0.0152662769519       866.377591983       4.62270285508       2.23387126605     -0.136833572168    0.00856192935761     0.0824889349263       3.40391937085
    0.0184238881381       866.798727049       4.83544312245       2.39142604969    -0.0447223742218     -0.071333691618       0.19411577742       3.23178359621
    0.0223709021208       866.163308973       4.50790265568       2.15431221719     -0.183293396807     0.0478713292023     0.0262789031681       3.48977298105
    0.0269757517674       866.545088759       4.70658602198       2.29895463004    -0.0981688309092    -0.0250030538482      0.128953174099       3.33285139885
    0.0327318138255       866.324045763       4.59456636895       2.21733984119      -0.14541677251     0.0161460592004      0.071597005114       3.42234783201
    0.0384878758837       866.448662094       4.66307057967       2.26729676692     -0.115759291023    -0.0095799521103      0.106979247619       3.36756810128
    0.0442439379418       866.475151234       4.67862804208       2.27867518458     -0.108699974385    -0.0162989362549      0.115358454659       3.35474397626
               0.05       866.410640628       4.64905394023       2.25734689724     -0.120388245081   -0.00578385373357      0.100810019508       3.37849720359
    0.0571428571429       866.561968116       4.73119263984       2.31722192999    -0.0849881250897    -0.0368753898049      0.143572329998       3.31277049137
    0.0657142857143       866.632266467       4.77028055073       2.34631084074    -0.0672669939147    -0.0522604335456       0.16496888861       3.28130769749
    0.0771428571429       866.741995183       4.83280254951       2.39163447549    -0.0398435676956    -0.0763911414031      0.197971939868       3.23160878949
    0.0885714285714       866.871184245       4.95473392859       2.44233814459   -0.00970134107736     -0.103636440924       0.23444825551       3.17573721784
                0.1       866.941046685       5.13099462353         2.470746912    0.00760720286873     -0.118155424873      0.255319916441       3.14534652791
             0.1125       866.810687322       5.27890101489       2.42312586661    -0.0197097194858      -0.09582581041      0.222250984589       3.19630809528
            0.13125       866.547815293       5.45069480115        2.3345196248    -0.0691446205105    -0.0501103437803       0.16119549005       3.29746051129
               0.15       866.051837879       5.40371092635       2.16421804201     -0.167657382657     0.0298623099016      0.041415182623       3.47687017824
              0.175       865.731140645       5.38681950112       2.10645865012     -0.193074958263      0.048552879548    0.00597218381401       3.53904711636
                0.2       865.472120266       5.68052743999       2.12262893864     -0.171973271455     0.0496079558034     0.0253604470307       3.54070425684
              0.225       865.648913968       7.23866902866       2.35453585456    -0.0228449095371     -0.087119872498      0.197680426822       3.28362997529
               0.25       865.744956765       9.84375455527       2.51368325756     0.0780276262244     -0.168845682926      0.317911768727       3.11772485287
              0.275       865.406774717       12.8552291823       2.50497336436     0.0794220050776     -0.191236870416      0.320365525993       3.09779692826
             0.2875       864.705875836       14.5370281706       2.43380527451     0.0527794584911     -0.153555309649      0.278906430863       3.20175851282
                0.3       864.395284149       16.3516018285       2.42849589353     0.0493977609299     -0.153252369675      0.275190146958       3.20386769028
     0.316666666667       863.914232762       18.9702083631       2.43178797605     0.0581268248934     -0.157549079637      0.282774285818       3.19902079721
     0.333333333333       863.427521056       22.1947565687       2.47942742551     0.0974701505442     -0.193883726531      0.325343546995       3.14656487633
               0.35        863.05861044       26.5005089741       2.57946942279      0.165794280887     -0.251819358983      0.403603830199       3.04035603362
     0.366666666667       862.864357246       32.0540415353       2.70336537555      0.245009279323     -0.335292927402      0.497504636258       2.89075070845
     0.383333333333       862.863761798        39.135375959       2.85000971752      0.337957379981     -0.406638905887      0.606928984976       2.74187863223
                0.4       862.995680527       47.7284391739       2.95640741062       0.40335374576     -0.476325261651      0.686063063342       2.62146726862
     0.416666666667       863.126403254        57.679585573       3.01911806518      0.440890176278     -0.514664342717       0.73058151312       2.54996179663
     0.433333333333       863.068836549       67.9860453917       2.99386426569      0.433430337129     -0.502276590578      0.718844722429       2.58579744977
               0.45       862.696792449       77.6288002108       2.89528670535      0.377536174403      -0.46489723095      0.650855055894       2.68489612617
     0.466666666667       862.218298706       85.0274963396       2.81611779781      0.335631878335     -0.428326993943       0.59766157949       2.77223850667
     0.483333333333       861.804243485       94.2048890092       2.76740401996      0.307662225012     -0.410492316291      0.563964615272       2.81906325717
                0.5       861.442056875       104.206222876       2.76896378046      0.314608042896     -0.400692502173      0.569652862602       2.83698641187
     0.516666666667       861.436200626         116.3967831       2.84934824381      0.368087345601     -0.442980048803      0.631098251624       2.75557144936
     0.533333333333       861.743926837       130.230896903       2.92479421813      0.403432109345     -0.513232211184      0.678541498887       2.63086410196
               0.55       862.499475028       144.741695034        3.0301497798      0.473427125524     -0.531271532338      0.759906180416       2.56779234288
     0.566666666667       863.167472526       158.589363767       3.04863719516      0.471400750945     -0.578526120903      0.765781512261       2.49228781497
     0.583333333333       863.333469373        167.94280505        3.0013643553      0.456765399832     -0.512317598858      0.746534828377         2.610322842
                0.6       863.448914345       178.666123405       2.92860483638      0.402092690982     -0.501276939656      0.682324008754       2.64188949025
     0.616666666667        863.09123094       186.211431075       2.83787022161      0.357030783567     -0.430134366739      0.621028329841       2.77900895765
     0.633333333333       862.668271949       195.600151186       2.77519712094      0.313747878856     -0.422115915443      0.571531225094        2.8140975535
               0.65       862.443286742       207.979374336       2.81037990748      0.338485580414     -0.413475448781       0.59864328038       2.80943339663
     0.666666666667       862.542745023       223.056867527       2.86230879375      0.362584381436     -0.454434456252      0.631396654242       2.73378535926
     0.683333333333       862.983742105       239.484790159       2.94366847536      0.407061050993     -0.476239306593      0.686442422139       2.66148636948
                0.7       863.353082904       254.164450097       2.98501985267      0.429069112967     -0.493142146687      0.715012108994       2.61837383041
     0.716666666667       863.347419249       264.690372876        2.9592699976      0.410649514239     -0.484482746241      0.695156911718         2.644268556
     0.733333333333        862.52297685       270.312123919       2.84711401883      0.331670179577     -0.424133368174       0.60602974874        2.7458852813
               0.75       861.206302309       274.968054444       2.75856124183      0.279559366373     -0.357709596033      0.543189974979       2.86489412692
     0.766666666667       859.461938597       279.946541381       2.65383428784      0.206963383867     -0.293473712784      0.461776466532       2.97712791996
     0.783333333333       857.663693613       287.542655335       2.63576641351      0.192387250328     -0.280801677513      0.444488089777       2.99109214445
                0.8       855.912428101       297.130111233       2.63348403807      0.186066962877     -0.284225178147      0.439692269314       2.98134288404
     0.816666666667       854.758346084       311.547509257       2.70318110785      0.220230490224     -0.303654916834      0.483796403334       2.91310727519
     0.833333333333       853.650180909       324.246411234       2.74379986332      0.236092458502     -0.319967435767      0.507518312289       2.86923958785
               0.85       852.046426971       330.810840565       2.71235792003      0.208934004379     -0.274107638989      0.479788878552       2.91903814137
     0.866666666667       850.130536304       334.912868841       2.66840092943      0.172299732146     -0.262065892447      0.440287170528       2.93672250304
     0.883333333333       847.462391398       331.682003975       2.55158479185      0.099698414685     -0.185650743907      0.355446664973       3.07248001494
                0.9       844.626870519       328.076861561       2.43250391613     0.0165882562906     -0.128657504596      0.261284787903       3.17850197105
     0.916666666667       842.128550592       327.600956782       2.38883115769    -0.0111582104342    -0.0851779173671      0.228394788335       3.23997952912
     0.933333333333       840.015017696        327.67931062       2.32016622147    -0.0692619264097     -0.061063619101      0.167367527084       3.28275749175
               0.95       838.712600947       332.279656632       2.35262092804    -0.0547161009628    -0.0404964377601      0.186626442334       3.27390802006
     0.966666666667       838.150079308       337.763686578       2.38553362421    -0.0485434059033    -0.0631350740413      0.200315758676       3.21803997062
     0.983333333333       837.824618223       338.545625463       2.38619322228    -0.0556213191124    -0.0619016010462      0.196073697859       3.20459664307
                  1       837.492456323       332.514048174        2.3291773129    -0.0952368705403   -0.00637187560083       0.15168178024       3.28195108766
      1.01666666667       837.632123916        324.40727236       2.24764167542     -0.157746854545     0.0354823307552      0.083329655755       3.34825869282
      1.03333333333        838.11783532       312.441813001       2.16073703161     -0.212708582495     0.0965319636836     0.0188632724568       3.45357948323
               1.05       839.164748978       297.633670885         2.041343112     -0.292925209558      0.166734303544    -0.0732712776944       3.57464454709
      1.06666666667       841.797668818       289.878731207       2.01629388234     -0.318623612247      0.170524660608    -0.0996042360084       3.58053966345
      1.08333333333       845.257984717       282.074558025       2.01597979291     -0.326156127175      0.203772544952     -0.106144361715       3.60780466094
                1.1        849.58523515       273.576052487       2.02062275362     -0.329210009129      0.212968142114     -0.107294129696       3.60689781888
             1.1125       853.339063689       267.793434549       2.04311336824     -0.325816911543      0.203696466771    -0.0998035148867        3.5789255544
              1.125       857.547179121       261.275523834       2.06195229323      -0.31851920507      0.203381943924    -0.0891801255216       3.56286035704
             1.1375       861.444742785       248.996737216       2.00463905174     -0.361687111341      0.230547884094     -0.136991242622       3.61242394303
               1.15       865.651305538       235.899238749       1.96067912589     -0.389819246749      0.270380665797     -0.169975219964       3.67283639701
               1.16       868.839173946       223.641099428       1.91702814828     -0.417800246961      0.311619108388     -0.203946474699       3.74084105888
               1.17       872.542104114       212.513613456       1.87585817892     -0.447800274966        0.3285756832     -0.237064601852       3.77216064918
               1.18       876.251381436       201.044300323         1.820216052     -0.485943834927      0.352718050843      -0.28072699814       3.82321790387
               1.19       880.186401252       190.458632973       1.79614870096      -0.50765240718      0.372309640477     -0.304459708664       3.85195290021
                1.2       884.316073808       181.339576988       1.80501668913     -0.506857240878      0.381627425698     -0.302196878516       3.85570503682
      1.20833333333       887.110363056       169.646744005        1.7576282843     -0.534010439165      0.414776181101     -0.335945900402       3.91992473696
      1.21666666667       890.697734035       163.415998133       1.80602315402     -0.507205319601      0.397631015454     -0.303541940494       3.87629984639
              1.225       893.814355395       154.739157131       1.81661558797     -0.500994433739      0.401635698248     -0.296842768906       3.87754085465
      1.23333333333       896.656993427       145.447822305       1.80491739569     -0.511727519416      0.404372634779     -0.308037078342       3.88403418994
      1.24166666667       899.621310032       138.269637558       1.85793679594     -0.482620755645      0.378952092154     -0.272730815516       3.82901862401
               1.25       901.933730337       128.075310041       1.84092718183     -0.495880896535      0.396365712436     -0.287377148572       3.85468492478
      1.25833333333       904.095674821       118.797336864       1.85548676631     -0.489552594637      0.388127472421     -0.279344078481       3.84001512307
      1.26666666667        905.95238172       109.418097181        1.8730179936     -0.477121960871      0.399882790112     -0.265228475749       3.84634133679
              1.275       907.154251111       97.0703418532        1.8058862955      -0.51628799553      0.429831996259     -0.312661637544        3.9167758928
      1.28333333333       908.448809155       86.5273420902       1.78332777819     -0.537283212382      0.436159115329      -0.33494056991       3.92999909769
      1.29166666667       909.553474952       75.4083612773        1.7535097847      -0.55939542427      0.463025540196      -0.36118191756       3.97714163572
                1.3       910.466271973       64.8744022286       1.74876620711     -0.552592860004      0.480060613093     -0.356939087382       4.00802558625
      1.30714285714       910.958873819       55.4793005431       1.69566367055     -0.590373081718      0.500405083406     -0.401199336353       4.05453632845
      1.31428571429       911.737747831       47.3208435737       1.72115230481     -0.575720865133      0.490356848893     -0.384500216538       4.03458856682
      1.32142857143       911.923068733        38.590624312       1.67234683996     -0.606598083216      0.510367127791     -0.421104664397       4.08261559469
      1.32857142857       912.311618483        31.600177627       1.69499269533     -0.596166498731      0.508902387534     -0.409037824868       4.07379273572
      1.33571428571       912.313152377       25.4003895113       1.71208745743     -0.584695612783      0.505289291902     -0.396932051765       4.06748971475
      1.34285714286       912.131392362       19.8821776196       1.71801500883     -0.578383573953      0.495256746667      -0.39039805887       4.05735342464
               1.35       911.776061557        15.777152508       1.73016365639     -0.573573957622      0.506053874102     -0.384651110312       4.06507931521
            1.35625       911.196835259       12.4136495486       1.74911186763     -0.559302374333      0.485050972704     -0.369564109809       4.03644003139
             1.3625       910.481440017       9.50441341813       1.76676576348      -0.55469023064      0.473476920865      -0.36097860277       4.01323961373
            1.36875       909.571790135       7.24327016045       1.81394129078     -0.520422676637      0.458609676667     -0.322107177731       3.98694552524
              1.375       908.318375744       5.52901528379       1.82497727356      -0.51503957962      0.454054911573     -0.313997122312         3.976898185
            1.38125        906.95171968       4.34659935612       1.84103865464     -0.505262194902      0.442145805048     -0.302911615914       3.95682109109
             1.3875       905.426836292       4.23639020559       1.85129439459     -0.502734294271      0.417869332347     -0.298823377749       3.92472898954
            1.39375        903.74212413       4.23368017505       1.85757164932     -0.493119918002      0.446582655937     -0.289245142511       3.96084182823
                1.4       901.954185752       4.25817845539       1.87255662914     -0.487122791407      0.424123156214     -0.281879842397       3.92850161585
      1.40555555556       900.155039583        4.1607017864       1.80393584088     -0.526612386103      0.457036205744     -0.329355930701       4.00109049151
      1.41111111111       898.608651964       4.28727087352       1.89133299229     -0.479954646173      0.413539459482     -0.269195256268       3.90510639434
      1.41666666667       896.643161645       4.26861859367       1.87918695573     -0.482217402482      0.419452714007     -0.274276794926       3.92586138505
      1.42222222222        894.65202195       4.18518453907       1.81370379238     -0.523046386163      0.457369551113     -0.323021864395       4.00299637493
      1.42777777778        892.71934975        4.1922149669       1.81634936692      -0.52492114621      0.427878684743     -0.323399322165       3.96709628079
      1.43333333333       890.706733797       4.21047253458       1.83933660067     -0.499504939897      0.441566931306     -0.299520078774       3.98392704679
      1.43888888889       888.582605692        4.1667716662       1.80935176494     -0.514758528299      0.464294448673     -0.319780463942       4.03084123388
      1.44444444444       886.588836587       4.15416919715       1.79420962755     -0.529735016779      0.458856921681     -0.335516159125       4.03165689819
               1.45       884.444807333       4.08662067554       1.74436386693     -0.559598991938      0.473715728758     -0.370781076936       4.07148799374
      1.45555555556       882.389297372        4.1348190591       1.78187701731     -0.531781954209      0.470689396871     -0.341265154732       4.06297231624
      1.46111111111       880.306389901       4.13170828025       1.77621111691      -0.53486759415      0.465747908471     -0.345256993024       4.05910776117
      1.46666666667       878.080351702       4.13027141125       1.77717751229     -0.531978959406      0.452136805476      -0.34297744022       4.05003874487
      1.47222222222       875.853635554       4.11265271926       1.76318484066     -0.541439739115      0.454508731428     -0.353472396782        4.0552736772
      1.47777777778       873.585181002       4.11612574269        1.7658852231     -0.538129837279      0.457188340773     -0.351031305146       4.06245551539
      1.48333333333       871.228947444       4.09950423028       1.75660573459      -0.53923691836      0.464030364315     -0.354572787141       4.08203123664
      1.48888888889       868.849380842        4.1436220146          1.78617038     -0.523263702767      0.432764705168     -0.334588786476       4.02679529039
      1.49444444444       866.292338541       4.28058761172       1.88808400906     -0.461907373474       0.39735678844     -0.262167535211       3.93776561715
                1.5       863.506461893       4.18980790336       1.82166278581     -0.496411719507      0.406376852515     -0.304863541409       3.98532127884
              1.505       861.129286814        4.2756683316       1.88737248471     -0.453991180669       0.38728653381     -0.256921592972       3.92634100909
               1.51       858.451511861        4.3116835515       1.90773458244      -0.44614318495      0.349103371147     -0.244594198737       3.87210294512
              1.515       855.793633501       4.24863649187       1.86702200907         -0.46238423      0.399257518063     -0.267468236641       3.94974209772
               1.52       853.065462696       4.43361371203       1.99706876921     -0.394524939704      0.296318552679     -0.182645198506       3.76133886145
              1.525       850.101287567       4.39683360369       1.97850602148     -0.394013442378      0.298927389353     -0.185755334393       3.78192663626
               1.53       847.179140934       4.35473287903       1.94660386548     -0.410288581125      0.341434249804     -0.207245709517       3.84260066671
              1.535        844.15569722       4.46102353088       2.02279553805     -0.372399693677      0.270192762273     -0.157984246028       3.71350753869
               1.54         841.0574135       4.38344494853       1.96867760699      -0.39917222948      0.298954203838     -0.192634189223        3.7735800394
              1.545       837.945331759       4.49510572162       2.05559697871     -0.341719735613      0.270486215343     -0.126588139447       3.69849676783
               1.55       834.677923646       4.45151859725       2.02088653579     -0.364157350592      0.260948920414     -0.151473091579       3.69376426076
      1.55416666667       832.021239117       4.49051205891       2.05155505252     -0.341575943264      0.261849043597     -0.127194847486       3.66338287814
      1.55833333333       829.256485802       4.48349574369       2.04472212441     -0.345224854424      0.249322804007     -0.131823018211       3.66467446682
             1.5625       826.556933406       4.38817092732       1.97076554241     -0.392372617385      0.270367545423      -0.18674173422       3.71737053501
      1.56666666667       823.937008357       4.42892661716       2.00454421019     -0.368121756793       0.25416315307     -0.159713209455       3.68180693965
      1.57083333333       821.228321491       4.44591792089       2.01909028176     -0.356623221235      0.246562981935     -0.147981616171       3.66366654273
              1.575        818.42382611       4.51730740944       2.07138902852     -0.329618521575      0.215414881833     -0.112884606772       3.58417193015
      1.57916666667       815.783918872       4.25757211408       1.88315898612      -0.42598963728       0.31857544974     -0.235641420996       3.80812698902
      1.58333333333       813.121146732       4.51546837318       2.07575116236     -0.317008890071      0.210992383665     -0.102778813206       3.57456215185
             1.5875       810.437402498       4.33812344901        1.9405389472     -0.400851978944      0.256784114789     -0.202351181216       3.69181497669
      1.59166666667       807.765645211       4.43409145928       2.02136426066     -0.338220264899      0.239231709631     -0.133054036845       3.62829979746
      1.59583333333       805.204768629       4.22422505411       1.85732112784     -0.443125174804      0.301756482917     -0.256495076465       3.77487979902
                1.6       802.454512756       4.57718977705       2.12384509486     -0.283012886596      0.172813825864    -0.0645853000574       3.47226123334
      1.60454545455       799.539938573        4.2841198662       1.90781645324     -0.404551307976      0.266547361511     -0.213866983602       3.70132038466
       1.6095959596       796.248866988       4.44540007284       2.02975440309     -0.331362996649      0.203830187666     -0.125776792185       3.55176992252
      1.61464646465       793.005639187       4.37069248643       1.97050641584     -0.369070772454      0.212917881584     -0.170382944546       3.57820347953
       1.6196969697       789.771154239       4.39139140053       1.98731102145     -0.353583553958      0.205862600714     -0.154258274134        3.5504187275
      1.62575757576       785.720427591       4.47994728525        2.0599044497     -0.304562036415      0.176226125618    -0.0977843362532       3.46311043336
      1.63181818182       781.779473691       4.42301677996       2.01923142264     -0.325375927305      0.187968958638     -0.123864618654       3.49115314424
      1.63787878788       777.712755734       4.49651829716       2.07175788953     -0.295455383766      0.131765102085    -0.0879900155706       3.36718770331
      1.64393939394       773.650069167        4.5080931185       2.08518474197     -0.280921344146      0.129782254476    -0.0731410528403       3.36363613369
               1.65       769.464244023       4.57034300305       2.13264817616     -0.252244616409     0.0927779649945     -0.038478655475        3.2860063022
      1.65555555556       765.610554759       4.61369436839       2.16699541255     -0.228453435223     0.0668637828787    -0.0114802208952       3.22472700058
      1.66111111111        761.68445374        4.6456117096       2.19365109135     -0.208325542824       0.05874594648     0.0108278626832       3.20724408026
      1.66666666667       757.650395444       4.71433530479       2.24701451237     -0.176723913238    0.00684827361492     0.0496654036297       3.12083619074
      1.67222222222       753.869581064        4.5900487026       2.15382283339     -0.227141831009     0.0687763238784    -0.0136846974826       3.23296694855
      1.67777777778        749.83030938       4.77808693113       2.30002222568     -0.135873876969     -0.023295141493     0.0944703863259       3.04887635438
      1.68333333333       745.776034054       4.76899371223       2.29019568032     -0.146354444493    -0.0365889261395     0.0845257352444       3.04065060521
      1.68888888889       741.983190765       4.67425594705       2.22387881741     -0.175702010172    0.00140086989308     0.0445010278928        3.1201126482
      1.69444444444       737.892549722       4.86345763579       2.36972011691    -0.0872938931539    -0.0756034305656      0.150501494713       2.94378304112
                1.7       733.873781707        4.8405992274       2.35319858877    -0.0972818028495    -0.0879967586434      0.138882717956       2.93711056374
            1.70625       729.624686821       4.72919299723       2.27268895554     -0.137697697245    -0.0409142092641     0.0869843966445       3.06735357749
             1.7125        725.45765293       4.73202615254       2.27366749953     -0.139112159154    -0.0658161206815     0.0859537725323       3.01408040109
            1.71875       721.310551142       4.74610265516       2.28908237835     -0.122461881277    -0.0678186379509      0.102914844561       3.01275951093