# Probe 0 (0 0 0)
# Probe 1 (-0.449 0.093 0.031)
# Probe 2 (-0.449 0.299 0.031)
# Probe 3 (-0.425 0.508 0.031)
# Probe 4 (0.4 0.508 0.031)
# Probe 5 (-0.449 0.483 0.031)
# Probe 6 (0.449 0.222 0.031)
#             Probe                   0                   1                   2                   3                   4                   5                   6
#              Time
  0.000119904076739       261.541419123      -314.842192648      -228.142317015      -130.472527814       124.987146315      -159.708121458       262.523031632
  0.000263650750869       1401.54736197       270.521980978       196.916042674       117.583807596      -91.6322610237       140.801671363      -203.647102687
  0.000436346407984       893.302392073       6.64090681438       6.01354553218       5.75470962112        6.0017928191       6.12445069286       5.80211322494
  0.000643725711716       891.580546696       6.79321756703       5.90140419374        5.8711253227       5.89899891051        5.9097888708       5.87828620711
  0.000892999824283       891.457360328        6.8573787061       5.89594184092       5.88275002275       5.89520857647       5.89894297268       5.88684767858
   0.00119243275218       891.414695638       6.85642032956       5.89382270308       5.88677696328       5.89347390985       5.89528102454       5.88935178463
   0.00155131192312       891.395140272       6.86026182471       5.89257443624       5.88848052571       5.89246746036       5.89337814142       5.89019776504
   0.00198006137513       891.385133995       6.86266386706       5.89202762723       5.88950937942       5.89204575992       5.89252637113       5.89069787188
   0.00249640480121       891.379910864       6.86435666883       5.89173315943       5.89013433498       5.89183111448       5.89204438978       5.89098110086
   0.00311333460898       891.376420409       6.85603225764       5.89154816226       5.89051596545       5.89169740957       5.89176275588       5.89116203617
   0.00385756739297       891.374247657       6.84544756193       5.89143377429       5.89076882445       5.89160245696       5.89159637667        5.8912575538
   0.00474492186618       891.372898955       6.83249100862       5.89137087343       5.89092990894       5.89151998341       5.89149643095       5.89129138458
   0.00579736554371       891.371866476       6.81685997179       5.89131527319       5.89102402255       5.89150385668       5.89141981755        5.8913479439
   0.00706029795675        887.48159955       4.74308606173       4.44372020323       5.04758419651        6.6286647275       4.86703099125       7.47918113986
   0.00859385874401       891.065755819        6.4854361307       5.78287060745       5.82926835915       5.94492947596       5.81355833037       6.00921326911
    0.0103941257551       891.593170597       6.64141169863       5.97940765606       5.94381393725       5.84570803342       5.95299384562       5.79462008261
    0.0125944521021       891.494258367       6.45810552593       5.94182310179       5.92147082419       5.86525150671       5.92671130845       5.83602535641
    0.0152662769519       890.994681077       6.02138348767       5.75586226167       5.81279779944       5.96000635329       5.79523743646       6.03973325672
    0.0184238881381       891.413318244       6.03680763615       5.91314977827        5.9046537142       5.88034787056       5.90659698807        5.8678646821
    0.0223709021208       890.773752326       5.60158655729       5.67559214578        5.7656587761          5.99994661       5.73831626165       6.12629772028
    0.0269757517674       891.150228657       5.79970291545       5.81966709487       5.85024127647       5.92757555943       5.84042297922       5.96994334997
    0.0327318138255       890.920997344       5.68680828311        5.7371761414       5.80215632558       5.96950160935       5.78219045681       6.06031541708
    0.0384878758837       891.036353258       5.75432291614       5.78614214389       5.83086708059        5.9446539912       5.81658148879        6.0065258021
    0.0442439379418       891.052622502       5.76878798827       5.79642694757       5.83688145296       5.93890405285       5.82386667395       5.99479414452
               0.05       890.976700714       5.73799361477       5.77387752111       5.82402625528       5.95050071398       5.80809653163       6.01976691423
    0.0571428571429         891.1129289       5.81851865817       5.83213666455       5.85788200745       5.92083963552       5.84924201857       5.95565346539
    0.0657142857143       891.164364857       5.85558874891       5.85920683107       5.87367340218       5.90724046486       5.86861837386        5.9262053145
    0.0771428571429       891.249283763       5.91545408676       5.90187501906       5.89855787957       5.88545684132       5.89896356559       5.87915507143
    0.0885714285714       891.355948046       8.71275411458       5.95016757019       5.92639419433       5.86034065919       5.93302608723       5.82568709597
                0.1       891.406595666        14.371371508       5.97651941205       5.94173513359       5.84763651466       5.95183817498       5.79734588954
             0.1125       891.256865481       22.0378890831       5.92682462316       5.91243411796       5.87179439968       5.91669249065       5.85037274279
            0.13125       890.958432732       32.6539820442       5.83441105445       5.85935543801       5.92086283736       5.85182325787       5.95531446462
               0.15        890.40200766       38.8110746653       5.65763622669       5.75464438949       6.00652533049       5.72555617278       6.14115933866
              0.175       889.941211248       40.2946100001       5.58486988083       5.71484229647       6.03835402086       5.67506213828       6.21821932541
                0.2       889.480088138       49.2833762478       5.57937902218       5.71514450234       6.05824370227       5.67269448128       6.24127122391
              0.225       889.427093843       92.2626884483       5.78663908543       5.84055402098       5.94276254474       5.82021535749       6.00841584657
               0.25       889.293507074       171.381911263       5.92113712137       5.91764996384       5.88209134138       5.91559819134       5.86660034355
              0.275       888.725338343       267.600253125       5.88772057762        5.8951574656       5.88061051573       5.89309907468       5.87068698216
             0.2875       887.903380338        322.29096234       5.80354005786       5.85591226123       5.92922791504       5.83847924503       5.98724414045
                0.3        887.46536604       375.196051387       5.78452844039       5.83924352627       5.94098921269       5.82089075283       6.00257779577
     0.316666666667       886.801530986       442.206276096       5.76815532676        5.8288742278       5.95303533978       5.80854114252       6.01664124713
     0.333333333333       886.120784053        507.97176209       5.79490588463       5.84789349746       5.93392965284       5.82990467333         5.984183644
               0.35       885.552775675       571.670170091       5.87350048714       5.89531050728       5.89354439365       5.88635864966       5.89841336202
     0.366666666667       885.163738479       629.012340569       5.97640033129       5.95401965666       5.82711624633       5.95887924643       5.76872451112
     0.383333333333       884.983102613       676.757721822        6.1036262509       6.02796895869       5.77141622363       6.04850130205       5.63819186924
                0.4       884.958365331         714.0179136       6.19311852047        6.0767989439       5.71525879186       6.11037350353       5.53368400618
     0.416666666667       884.959831662       722.316496566       6.24187385333       6.10064160452       5.68802342118       6.14062685606       5.47526313549
     0.433333333333       884.796884316        723.39807703       6.20523874478       6.08200155207       5.70942396603       6.11724577061       5.52174089462
               0.45        884.33440065        725.12785215       6.09688961658        6.0164997536       5.75451075855       6.03925135804       5.62995571912
     0.466666666667       883.771982076        725.18708434       6.00865049838       5.96567022552       5.79820999517       5.97676514037       5.72574281886
     0.483333333333       883.276268306        727.22656862       5.95110923222       5.92900755831       5.82295964266       5.93401850003       5.78077052977
                0.5       882.833690474       730.204242321       5.94397664535       5.92738707736       5.83954621305       5.93079021949       5.80675590286
     0.516666666667       882.754199794       735.964371047       6.01639743495       5.97301265752       5.80345707825        5.9840618616        5.7327141382
     0.533333333333       883.003231075       744.674489406       6.08549416868       6.00209206212        5.7381334875       6.02498517982       5.61387625847
               0.55       883.722405528       756.011167153       6.18691437468       6.06820203341       5.72314307155       6.10230728694       5.55443848345
     0.566666666667       884.380125878       768.962935133       6.20428963807       6.06507749219       5.67674930235       6.10703996906       5.47996038404
     0.583333333333       884.554486438       779.046167681       6.15792154803       6.05133552144       5.74225756415       6.08872285191        5.5971604169
                0.6       884.693682278       791.842482365       6.08773158166       5.99919970496       5.75130813628       6.02715175304       5.62635474219
     0.616666666667       884.366468507       802.047577803       6.00029313542        5.9573912682       5.81989505118       5.96924157346       5.76042913304
     0.633333333333       883.977035742       814.363434562       5.94124654099       5.91768685016       5.82509805994       5.92346837513       5.79216499613
               0.65       883.790670151       830.115145366       5.98060637052       5.94654493012       5.83049091681       5.95486851171       5.78363590393
     0.666666666667       883.940064841       849.554333821       6.03793555672       5.97596861876       5.78532567007       5.99316391733       5.70298594798
     0.683333333333       884.449671314       871.976732721        6.1267134606       6.02775595277       5.75772891781       6.05581923989       5.62380653512
                0.7       884.910710372       894.672927144       6.17797706721       6.05952534272        5.7330617239       6.09455072947       5.57148327038
     0.716666666667        885.01870961       915.141291783       6.16450981391       6.05318992379       5.73205989226       6.08727770214       5.58593742365
     0.733333333333       884.322967808       932.027667332       6.06625613593       5.98787297315       5.78142020639       6.01237892552       5.67456841303
               0.75       883.142988389       948.656422095       5.99246301964       5.95024921474       5.83611440169       5.96462984887       5.77974807864
     0.766666666667       881.537932079       965.845913931        5.9027711849       5.89239161921       5.88833496589        5.8985725449       5.87784926226
     0.783333333333       879.880434602       985.789148585       5.89988703138       5.89267994375       5.88880413107       5.89677554486       5.87749452846
                0.8       878.273088482       1008.01220026        5.9131234626        5.9015316998       5.87283665365       5.90779564768           5.8530616
     0.816666666667       877.273554043       1036.01030528       5.99947733346       5.95195670626       5.83986188978       5.96885589107       5.76901048906
     0.833333333333       876.336352831        1063.7470358       6.05851262958        5.9857700909       5.80847493126       6.01130151683       5.70758967514
               0.85       874.919898346       1086.80308189       6.04723496035       5.97823266367       5.83771042831       6.00404389501       5.73808838534
     0.866666666667       873.205992834       1108.70909316       6.02500954543       5.96270444641       5.83169513593       5.98657127579       5.73487742443
     0.883333333333       870.746670623       1123.90670248        5.9306453851       5.91186488462       5.88930031972       5.92445287688        5.8489422417
                0.9       868.120055386       1138.75822252       5.83400994259        5.8504651239       5.92733105481       5.85296834763        5.9331706327
     0.916666666667         865.8281462        1156.5415085       5.81249909043       5.84411029799       5.95193140346        5.8424315273       5.97302391656
     0.933333333333       863.917511765       1174.58962268        5.7656040205       5.80697639643        5.9573480381       5.80332524358         5.994456758
               0.95       862.818604171       1197.23506329       5.81987918045       5.84249724043        5.9590213207       5.84451920192       5.96410892295
     0.966666666667       862.465996941       1221.35556268       5.87528316954       5.87024382264       5.91674651262       5.88077897098       5.88597208381
     0.983333333333       862.359365624       1241.59078912       5.89937211888       5.88558953277       5.89734910653       5.90000631338       5.84921198347
                  1       862.252335183       1255.59847962       5.86644195053       5.86897209437       5.93148137081       5.87969579685       5.90246848825
      1.01666666667       862.620173765       1267.82990348       5.80929788273       5.82969621852       5.95146975634       5.83568338496        5.9442387633
      1.03333333333       863.331489538       1276.00065392       5.74649122406       5.79763305698       5.99072055916       5.79521640587       6.02518447618
               1.05       864.594374485        1280.4945263       5.65014821269       5.73926755987       6.03988703557        5.7259940103       6.12280862155
      1.06666666667       867.434195158       1291.25468629       5.64716536494       5.73443848842       6.02336967923       5.72155350456       6.10614847351
      1.08333333333        871.09390922       1301.31608295       5.66810217578       5.74695879745       6.03690144442        5.7360584309       6.11158397035
                1.1       875.615115844       1310.21622337       5.69340117632       5.76335347731       6.02678208849       5.75532823987       6.08935643601
             1.1125       879.513148883       1317.38201569        5.7312397716       5.78116973911       6.00306190749       5.77796773077       6.04547654564
              1.125       883.865751847       1323.84949598       5.76544875921       5.80288758493       5.98819462654       5.80374164892       6.01342421753
             1.1375       887.906581547       1324.45753703       5.72336756232       5.77398670349       6.00085554862       5.77092499795        6.0470879708
               1.15       892.253694584       1324.01304138       5.69434313648       5.75982084978       6.02638501225        5.7526240941       6.09185540157
               1.16       895.550958111        1321.6111151        5.6623115447       5.74268937611       6.05644029875       5.73006242906       6.14765098037
               1.17       899.359665459       1320.02207147       5.63237221127       5.72316263949       6.06254138599        5.7079609421       6.16713843323
               1.18       903.169953244       1317.66809573         5.587450403       5.69500426444       6.07627869987       5.67480425466       6.20687214174
               1.19       907.200899686       1315.74442341       5.57356003005       5.68276371529       6.08595370148        5.6610354026       6.22483112102
                1.2       911.421926797       1314.87947953       5.59211653304       5.69256239625       6.08579550423       5.67277532351       6.21830046974
      1.20833333333       914.288165797       1309.68960991       5.55235632928       5.67249112634       6.11145902748       5.64648215841       6.27440754164
      1.21666666667       917.944343075       1309.68076054       5.60804408616       5.70606113375       6.08713751214        5.6860093748       6.22301296422
              1.225       921.126799222       1306.95878591       5.62561273529       5.71873789501        6.0842589665       5.69951803426       6.21680911835
      1.23333333333       924.032305753       1303.35538214       5.62057485343        5.7141730688        6.0804074451       5.69482077363       6.21618324573
      1.24166666667       927.057634008        1301.6962625       5.68005622741       5.74925989344       6.04857879327       5.73642678561       6.15424972346
               1.25        929.42904523       1296.83038418       5.66929314344       5.74177619801       6.05978307179        5.7278665756       6.17321862009
      1.25833333333       931.648294686        1292.7172917       5.68991938566       5.75371060918       6.04550024935       5.74180712649       6.15203474438
      1.26666666667       933.560953768       1288.36770411       5.71337278757        5.7716100249       6.05134155824       5.76168628789       6.15199294406
              1.275       934.816105312       1280.78974783       5.65187944385       5.73764717118       6.07564786422       5.71973749291       6.21635631576
      1.28333333333       936.161143755        1274.6676971       5.63466175234       5.72157740479       6.07661873959       5.70265084279       6.22382116705
      1.29166666667       937.312889258       1267.46901179       5.60982388388        5.7040552141       6.09848089854        5.6812487523        6.2655876271
                1.3       938.269041475       1260.28169008       5.60966565026       5.71508156353       6.11090004896       5.68994520989       6.29151600336
      1.30714285714       938.795406248       1253.74951873       5.56013344596       5.68058856734       6.12764482181       5.64915139267        6.3341643686
      1.31428571429       939.604987613       1241.03302176       5.58886888363       5.69822892947       6.11431884922       5.66900180948       6.31070135308
      1.32142857143       939.817348527       1196.78670315       5.54292212985        5.6699817304       6.13143983908       5.63517117593       6.35563104114
      1.32857142857       940.229573605       1114.49508466       5.56807071658       5.68271509931       6.12744302529        5.6496658011       6.34409479257
      1.33571428571       940.251570156       992.160549332       5.58732839337       5.69617468559       6.12163972034       5.66386925182       6.33544548789
      1.34285714286       940.087146657       833.167044272       5.59508829245       5.70417108306       6.10975029809        5.6721799864       6.32332055218
               1.35       939.746174643       613.733317297       5.60875445956       5.71037537849       6.11900861385       5.67939816671       6.32939881691
            1.35625       939.177377725       432.569939243       5.62880485865       5.72565977127       6.09688750445       5.69555360175       6.29956247108
             1.3625       938.470566618       281.594873102       5.64736592915       5.73110542527        6.0843927414       5.70501841751       6.27537655293
            1.36875       937.567959658       162.698212785        5.6952856558       5.76605668078       6.06876995648       5.74461112502       6.24827385006
              1.375         936.3201848       74.0028087473       5.70691751612       5.77198717111       6.06361007903       5.75329867139       6.23757895108
            1.38125       934.957910513       12.0514901486       5.72344184852       5.78218981171       6.05123075198       5.76483282135       6.21699868941
             1.3875        933.43632089       5.69755900011       5.73404555742       5.78503733269       6.02660079217       5.76925826115       6.18452835408
            1.39375       931.753715782       5.69507918809       5.74054539235       5.79485614886       6.05508798136       5.77905218332        6.2203992369
                1.4       929.966867568       5.71969652318       5.75564548979       5.80095900886       6.03251151829       5.78652903409       6.18793388078
      1.40555555556       928.167240837       5.62216735229       5.68697394349       5.76142279403       6.06547614032       5.73900376066       6.26057793565
      1.41111111111       926.619733455       5.74861399318       5.77425271007       5.80797179901        6.0220996746       5.79904971789       6.16472253236
      1.41666666667       924.652293047       5.72974850867       5.76190053407        5.8055197026       6.02822235658       5.79376842303       6.18570160454
      1.42222222222       922.657777138       5.64594537542        5.6960605208       5.76436293946       6.06650169682       5.74467754435       6.26322447769
      1.42777777778       920.720463793       5.65246850988       5.69821559673       5.76203761602       6.03750901943       5.74382474435       6.22785748388
      1.43333333333        918.70185054       5.67007063603        5.7205690456       5.78687159957       6.05184085048       5.76708975364       6.24537698833
      1.43888888889       916.570013087       5.62552727707       5.68976950454       5.77086952214       6.07539544284       5.74603974004       6.29317636717
      1.44444444444       914.566786404       5.61189126346       5.67362781384       5.75497462097       6.07097229617       5.72933517386       6.29507782694
               1.45       912.411173586       5.54307700886        5.6225578106        5.7239856341       6.08707298184       5.69288346635       6.33623843818
      1.45555555556       910.342087876       5.58979212638       5.65863612646       5.75048392866       6.08550142024       5.72100827241       6.32928047928
      1.46111111111       908.243554305       5.58497419693        5.6513185648       5.74587998295       6.08223356151        5.7154148613       6.32720837457
      1.46666666667       905.999797622       5.58160180959       5.65041202467       5.74704654218       6.07051903756       5.71587797139       6.32017108437
      1.47222222222       903.753199898       5.56181161415       5.63431764114       5.73565288122       6.07501760381       5.70334430935       6.32768482773
      1.47777777778       901.462635744        5.5628701498       5.63468062454       5.73681258073       6.08006034674       5.70351759385       6.33739967463
      1.48333333333       899.081886644       5.54357181083       5.62280914439       5.73332039737       6.08952045252       5.69746070162       6.35978264335
      1.48888888889       896.675692771       5.58478266312       5.64955823494       5.74670196236       6.06109577682       5.71471163123       6.30759409835
      1.49444444444       894.090705561       5.71869804322       5.74851668854       5.80533719558       6.02866646725        5.7842634949       6.22176073406
                1.5       891.274939364       5.62465645779       5.67893427356       5.76792100499       6.04086909965       5.73849717526       6.27273302911
              1.505       888.869620534       5.70744612912        5.7416671025       5.80759849057       6.02477230013       5.78354699303       6.21696781547
               1.51       886.162706096       5.74028251739       5.75894664136       5.81260503319       5.98968538335        5.7928787187       6.16605654256
              1.515       883.474279215       5.67390358687       5.71500210202       5.79338370961       6.04308196982       5.76686288096       6.24718110108
               1.52       880.715138246       5.85550360745       5.84177187884       5.85822005718       5.94342656135        5.8484993814       6.06230907369
              1.525       877.719323378        5.8152739957       5.81986090096        5.8556416914       5.94938614336       5.84213241351       6.08650198154
               1.53       874.764536537       5.76961548244       5.78450425682       5.83617736505       5.99534564304        5.8172807765       6.15089254148
              1.535       871.708112225       5.87231192847       5.85720489416       5.87084202046       5.92758874427       5.86314431247       6.02555215686
               1.54       868.576011728       5.79104882416       5.79950696572       5.84076173009       5.95991880065       5.82500870068       6.08946979532
              1.545       865.429771029       5.89898860098       5.88280962777        5.8948711535       5.93505112407       5.88753215473       6.01826776991
               1.55       862.127696361       5.85162601948       5.84442823433       5.86903889921       5.92916310953       5.85907056443       6.01747130752
      1.55416666667       859.441837742       5.88744285789       5.87200703976        5.8887620405       5.93313078654       5.88033753098       5.99040009866
      1.55833333333       856.647571202       5.87721360458       5.86204813277       5.88222027572       5.92370446882       5.87266185747        5.9950382477
             1.5625        853.91783532       5.77860351869       5.78489421469       5.83211254628       5.94791611288       5.81462516024       6.05115470347
      1.56666666667       851.267165334       5.81601349128       5.81541569517       5.85334691393       5.93493397807       5.83847639038       6.01907285861
      1.57083333333       848.527172696        5.8295987303       5.82664477038       5.86177240865       5.93061116524       5.84697136551       6.00447538597
              1.575       845.691140949       5.89755775659       5.87560168242       5.88567987544       5.90276082105       5.87880652021       5.92854741681
      1.57916666667       843.018362409       5.63424753083       5.68388791811       5.78607876546       6.00935473929       5.75264829286       6.15621755205
      1.58333333333       840.322377041       5.88853243666       5.87295968631        5.8917942002       5.90523660155       5.88207256344       5.92640380848
             1.5875       837.604413647       5.70746759224        5.7341199777       5.80458510395       5.95459385277       5.77895610939       6.04751856931
      1.59166666667       834.897707268       5.79963718099       5.81123993606       5.86377712927       5.94067847099       5.84463188293       5.98794480909
      1.59583333333       832.300376832       5.58580974071       5.64333140876       5.75528242563       6.00699194927       5.71741175571       6.13863279765
                1.6       829.513487237       5.93479479406        5.9059703482       5.91178510485       5.88185168739       5.90552190957       5.84013931733
      1.60454545455       826.557334958       5.63720922712       5.68553168142       5.78614737671       5.97989471468       5.75192552167       6.07387642372
       1.6095959596       823.218973792       5.79335492618       5.80245296236       5.85467000476       5.92207115767       5.83510538034        5.9296415268
      1.61464646465       819.926927293        5.7133484243         5.738025142       5.81214203856       5.93620194687        5.7854268526       5.96155697183
       1.6196969697       816.642126706       5.72858767057        5.7494900892       5.82265741123       5.93433509246       5.79632015824       5.93941628858
      1.62575757576       812.529475417       5.81042662107        5.8155104924       5.86555460443       5.91107119085       5.84635093053        5.8590460682
      1.63181818182       808.524560227       5.74656104982       5.76804666062       5.83840877174       5.92938122157       5.81361002002       5.89424554907
      1.63787878788       804.392339467       5.81296329519        5.8136169896       5.86183826971        5.8798871022        5.8426576441       5.77759936067
      1.64393939394       800.262605498       5.81727448851       5.81992190931       5.86972138777       5.88475577773       5.85051253459       5.78152916263
               1.65       796.008684955       5.87215035753       5.86015026491       5.89163619504       5.85469312979       5.87806522463       5.71148682554
      1.65555555556       792.091906271         5.908672629       5.88779266805       5.90915623752       5.83519504595       5.89847095377       5.65722743197
      1.66111111111       788.102173524       5.93370491939       5.90768428678       5.92295294341       5.83353365361       5.91412415447       5.64681543698
      1.66666666667       784.004440286       5.99554156316        5.9542774775       5.94821294577       5.78808193708       5.94629678949       5.56747381978
      1.67222222222       780.158905197       5.86425771004       5.85420273462       5.89134293939        5.8565466249       5.87616666234       5.68677725805
      1.67777777778       776.055092538       6.04532093639       5.99353653591       5.97617040553       5.77097843028       5.97755488349        5.5098297488
      1.68333333333       771.936454566       6.02927480433       5.97686176151       5.95926089685       5.76415483065       5.96085646622       5.50871774057
      1.68888888889       768.078590554       5.92751592557       5.90362506197        5.9234123719       5.80866563468       5.91400331079       5.59535649558
      1.69444444444       763.923555294        6.1097668986       6.04261152283       6.00537585484       5.73810445702       6.01323545492       5.42612490737
                1.7       759.840852627        6.0800101303       6.01928248064       5.98898314984       5.73209343269       5.99489114013        5.4264903636
            1.70625       755.519276282       5.96078668269         5.931053393       5.94129887377       5.78639362538       5.93536158238       5.56470079621
             1.7125       751.279202306        5.9557459226       5.92425093228       5.93255207795       5.76874584916       5.92663379309       5.51944428211
            1.71875       747.058499862       5.96189168123       5.93182301235        5.9418057164       5.77403375227       5.93583142537       5.52618925443