# Probe 0 (0 0 0)
# Probe 1 (-0.45 0.093 0.031)
# Probe 2 (-0.45 0.299 0.031)
# Probe 3 (-0.425 0.508 0.031)
# Probe 4 (0.4 0.508 0.031)
# Probe 5 (-0.45 0.483 0.031)
# Probe 6 (0.45 0.222 0.031)
#       Probe             0             1             2             3             4             5             6
#        Time
       0.0125       850.318       4.71503       2.34786    0.00844591      0.152438      0.231785       3.58479
        0.025        850.26       4.69589       2.34798    0.00866496      0.146225      0.231451       3.57026
       0.0375       850.251       4.69831       2.34788    0.00884403      0.142184      0.231277         3.566
         0.05       850.281       4.71714       2.35514    0.00748459      0.111023      0.232352        3.5215
    0.0666667       850.375       4.76116       2.37317    0.00346415     0.0381912      0.235454       3.41569
    0.0833333       850.488       4.81544        2.3955   -0.00108661    -0.0463171      0.239208       3.29201
          0.1       850.571       4.93094       2.41158    -0.0043673     -0.105793      0.242042       3.20474
     0.116667       850.546       5.16415       2.40785    -0.0037057    -0.0946666      0.241649       3.22277
     0.133333       850.256       5.39821       2.35863    0.00621668     0.0727149      0.233754       3.47562
         0.15       849.946       5.58041       2.30969     0.0155319      0.227635      0.225361       3.71324
     0.166667       849.657        5.6948       2.27171     0.0223132      0.335911      0.218358         3.882
     0.183333       849.456       5.86106       2.26147     0.0240107      0.335433      0.216087       3.89562
          0.2       849.439        6.1626        2.2963     0.0173917      0.175682      0.221206       3.67143
     0.216667       849.502       6.74137       2.34619    0.00742112    -0.0316418      0.229222       3.37549
     0.233333       849.523       7.77625       2.38404  -0.000850063     -0.194125      0.235789       3.14463
         0.25       849.427       9.32181       2.39916   -0.00500272     -0.275417       0.23879       3.03433
     0.266667       849.193       11.2664       2.39395   -0.00522689     -0.287386      0.238331       3.02797
     0.283333       848.774        13.424       2.36823   -0.00137465     -0.229971      0.234235       3.12621
          0.3       848.278       15.7361       2.34726    0.00175187      -0.19856      0.230708       3.18819
        0.325        847.69        19.469       2.34731   0.000288857     -0.266765      0.230644       3.11049
         0.35       846.904        23.813       2.35645    -0.0029458     -0.372496      0.232065       2.97742
        0.375       846.376       29.1724       2.41639    -0.0148838     -0.643675       0.24126        2.6015
          0.4       846.347       36.0664        2.4728    -0.0273477     -0.891909      0.250953       2.24918
        0.425       846.435       45.2458       2.50135    -0.0341854       -1.0096      0.256346       2.09075
         0.45       846.328       56.0663       2.46817    -0.0295945     -0.918381      0.251785        2.2385
     0.458333       845.925       60.5305       2.47424    -0.0305929     -0.942846      0.252738       2.20681
      0.46875       845.553       64.1022       2.40521    -0.0180281      -0.70933      0.241614       2.55592
     0.476562       845.231       67.7004       2.39154    -0.0154495     -0.675039      0.239162       2.61383
     0.484375       845.329       72.3438       2.41592    -0.0199506     -0.769084      0.242885       2.47771
     0.492188       845.076       75.9371       2.39662    -0.0166861     -0.709272      0.239878       2.56961
          0.5       844.879       80.0356       2.39261      -0.01597     -0.705015      0.239052       2.58149
     0.508333       845.139       86.3933       2.43752    -0.0242745     -0.868782      0.246138       2.33954
     0.516667       845.122       91.7054       2.44228    -0.0256283     -0.888611      0.247254       2.31371
        0.525       845.219       98.0082       2.45603    -0.0284431     -0.940582      0.249635        2.2373
     0.533333       845.404       104.014       2.45855     -0.029384     -0.951994      0.250418        2.2244
     0.541667       846.035       112.186       2.49881     -0.037243      -1.09352      0.257283         2.013
         0.55       846.108       117.411       2.48071    -0.0354215      -1.02726      0.255776        2.1131
         0.56       846.582       126.102       2.50388     -0.040051      -1.10681      0.259852       1.99246
         0.57       846.913       133.027       2.49252    -0.0425913      -1.05326      0.262076       2.06754
         0.58       846.798       137.869       2.45371    -0.0319169     -0.928759      0.252271       2.26016
         0.59       847.469       148.334       2.49116      -0.03768       -1.0602      0.257118       2.06507
          0.6       846.972       149.741       2.41651    -0.0217091     -0.789559      0.244279       2.46554
         0.61       847.107       158.008       2.43077    -0.0234207     -0.843762      0.245537       2.38812
         0.62       846.795       162.725       2.40442    -0.0188181     -0.745722      0.241531       2.53341
         0.63       846.628       169.829       2.40541    -0.0185376     -0.745011      0.241328       2.53351
         0.64       846.657       177.924       2.41736    -0.0205297     -0.780091      0.243155       2.47798
         0.65       846.474       185.058       2.41613    -0.0204397     -0.768069      0.243184       2.49391
       0.6625       846.481       195.608       2.43236    -0.0232154     -0.814791      0.245761       2.41883
        0.675       846.848       208.193        2.4604    -0.0284927      -0.90024      0.250598       2.28613
       0.6875       847.269       220.504        2.4819    -0.0327832     -0.957464      0.254656       2.19362
          0.7       847.406       230.055       2.47926    -0.0328179     -0.928257      0.255044       2.22909
       0.7125       847.651       240.189       2.48635    -0.0341485     -0.932678      0.256597       2.21338
        0.725       846.981       242.347       2.44359    -0.0268021     -0.758573      0.250556       2.45909
       0.7375       846.372       249.972        2.4368    -0.0249455     -0.715758       0.24931       2.51367
         0.75       845.209       252.249       2.40245    -0.0186493     -0.570314      0.244186       2.71616
         0.76       844.471        257.81       2.40241    -0.0177186     -0.555374      0.243707       2.73703
         0.77       843.169       259.745       2.38128    -0.0134947     -0.460353      0.240294       2.86798
         0.78       842.279       267.569       2.39422     -0.015068     -0.488304       0.24197       2.81975
         0.79       840.927        270.17       2.37966    -0.0122412     -0.415578      0.239815       2.91713
          0.8       840.582       281.938       2.41678    -0.0183295     -0.528191      0.245473       2.74342
     0.807143       840.091        286.99       2.42523    -0.0199566     -0.539586      0.247247       2.72271
     0.815714       839.004       292.137       2.42894    -0.0204229     -0.532029       0.24794       2.72308
     0.824286       838.655       300.343       2.44979    -0.0240707     -0.586163       0.25148       2.63444
     0.832857        837.64       304.181       2.44792    -0.0238312     -0.557005      0.251648       2.66696
     0.841429       836.794       308.131       2.44847    -0.0238207     -0.539168      0.252011       2.68371
         0.85       835.697       309.307       2.43686    -0.0217033     -0.477713      0.250533       2.76353
     0.858333       835.045       314.173       2.44541    -0.0230479     -0.488752      0.252085       2.73797
     0.866667       833.613       312.889       2.42441    -0.0192502     -0.393124      0.249142       2.86728
        0.875       831.818       306.784       2.38375    -0.0116429      -0.23238      0.242819       3.09386
     0.883333       831.128       312.359        2.3993     -0.013765     -0.269196      0.245023       3.03076
     0.891667       829.033       305.822       2.35907    -0.0063766     -0.105362      0.238924        3.2601
          0.9       827.943       307.535       2.35963   -0.00572535     -0.089129      0.238692       3.27542
     0.908333       826.458       306.253       2.34699   -0.00301389    -0.0237517      0.236682       3.36132
     0.916667        825.92       311.562        2.3658   -0.00588878    -0.0691104       0.23957       3.28491
        0.925        824.23       307.351       2.34193   -0.00137131      0.037144      0.236004       3.43024
     0.933333        823.38       308.301       2.34361   -0.00112767     0.0508781      0.236151       3.44101
     0.941667       823.118       313.922       2.36696   -0.00491667   -0.00957496      0.239857       3.34254
         0.95       822.746       317.805       2.38257   -0.00758661    -0.0396481      0.242626       3.28688
     0.958333       822.417       319.677       2.39065   -0.00891452    -0.0439058      0.244219       3.26935
     0.966667       821.993       319.814       2.39239   -0.00909261    -0.0275083      0.244801       3.28235
        0.975       821.595       318.017       2.38681   -0.00795859     0.0142813      0.244231       3.33226
     0.983333       821.654       318.598       2.39356   -0.00893601     0.0132326      0.245508       3.31961
     0.991667       821.581       316.175        2.3878   -0.00778127      0.057467       0.24493       3.37251
            1       821.206       309.449       2.36463   -0.00340112      0.160853      0.241508       3.51284
      1.00714       821.514       308.339        2.3684   -0.00367408      0.166722      0.242109       3.51294
      1.01429       821.298       301.154       2.34498   0.000871095      0.269592      0.238476       3.65422
      1.02143       821.886        299.72       2.35015   0.000556243      0.271832      0.239088       3.64929
      1.02857       822.162       294.861       2.34029    0.00279249      0.329642      0.237488       3.72484
      1.03571       822.241       285.773        2.3121    0.00829324      0.446886      0.233001       3.88794
      1.04286       822.775       280.146       2.30184     0.0108209      0.501803      0.231108       3.96087
         1.05       823.545       274.783       2.29362     0.0129094      0.550527      0.229613       4.02473
      1.05714        825.28       278.064       2.32628    0.00753203      0.453831      0.234655       3.87617
      1.06429       825.949       268.711       2.29962     0.0126942      0.571625      0.230516        4.0395
      1.07143       827.594       267.337       2.31244     0.0109179      0.541006      0.232396       3.98863
      1.07857       829.429       266.771        2.3291    0.00829358       0.50259      0.235057       3.92497
      1.08571       831.018       261.424       2.32402    0.00975407       0.54521       0.23414       3.97955
      1.09286       832.782       256.411        2.3212      0.010725      0.573061      0.233627        4.0138
          1.1       834.784        252.97       2.32731     0.0101131      0.570587      0.234503       4.00395
      1.10625       837.047        254.33       2.35528    0.00517135      0.483137      0.239125       3.87085
       1.1125       838.812       248.497       2.34666    0.00715213      0.536914      0.237721       3.94192
      1.11875       840.762       244.104       2.34711    0.00746443      0.550173      0.237744       3.95599
        1.125       842.775       239.404       2.34729    0.00779068      0.565169      0.237759       3.97254
      1.13125       843.886       228.688        2.3143     0.0138112      0.692736      0.232776       4.15308
       1.1375       847.378       234.532        2.3782    0.00275463      0.474957      0.242727       3.83332
      1.14375        847.48       213.058       2.28061     0.0202078      0.843181      0.227809       4.35959
         1.15       851.082        217.37        2.3475    0.00911093       0.60651      0.237704       4.01776
      1.15556       851.988       204.702       2.29927     0.0177678      0.799971      0.230436       4.29092
      1.16111        854.92       205.109       2.34398     0.0104584      0.650247      0.237046       4.07247
      1.16667       855.544       190.237       2.27669     0.0225382      0.905758      0.226751       4.43782
      1.17222       858.146       185.542         2.293     0.0213676       0.87193       0.22795       4.39005
      1.17778       860.169       181.371       2.28472      0.023246      0.917458      0.226556       4.45274
      1.18333       862.638       179.264       2.30691     0.0200281      0.855055      0.229662       4.36061
      1.18889       864.669        171.56       2.29824     0.0219145      0.900908      0.228289       4.42369
      1.19444       867.217       167.633       2.30818     0.0202902      0.873472      0.229987       4.38008
          1.2       868.355       157.408       2.27308     0.0268643       1.01057       0.22448       4.57807
      1.20556       871.567       157.377       2.31956     0.0193109       0.85341      0.231365       4.34938
      1.21111       872.738       146.952        2.2799     0.0264678       1.01117      0.225344       4.57483
      1.21667       875.798       144.143       2.30826     0.0223107      0.917946      0.229229       4.43888
      1.22222       877.406       137.117         2.299      0.024108      0.964062      0.227886       4.50306
      1.22778       879.525       132.013       2.30918     0.0229076      0.937097      0.229159       4.46305
      1.23333       881.573       126.753       2.31961     0.0214268      0.911604      0.230675        4.4238
      1.23889        883.25       120.303       2.31948     0.0217608      0.922111      0.230577       4.43659
      1.24444       885.059       113.899       2.32147     0.0218413      0.922962      0.230698        4.4351
         1.25       887.015       110.067       2.35835     0.0156649      0.795961      0.236307       4.24666
        1.255       887.173       100.345         2.307     0.0243437      0.979741       0.22886       4.50667
         1.26       888.882       94.4042       2.31555     0.0242864      0.962209      0.229052       4.48209
        1.265       890.488       91.7323       2.36438     0.0156324      0.787689      0.236815       4.22904
         1.27       890.513       83.2579       2.31297      0.024574      0.986457      0.229138       4.51777
        1.275       891.688       77.9278       2.32022     0.0247712      0.973424      0.229093       4.50492
         1.28       892.494       72.8352       2.32216     0.0250301       0.97683       0.22902       4.51321
        1.285       893.288        67.952       2.32448     0.0252708      0.977712      0.228963       4.51818
         1.29       893.265       61.4375       2.27625     0.0343948       1.15769       0.22109       4.78618
        1.295       895.429       60.2323       2.37172     0.0172312      0.797972      0.236268       4.26038
          1.3        894.46       53.0169       2.26601      0.034961        1.1995      0.220852       4.84122
        1.305       895.396       48.9343       2.27258     0.0354719         1.166      0.220471       4.80143
         1.31       896.536       45.8786       2.32304     0.0272054      0.988285      0.227854       4.54468
        1.315       896.088       41.1745       2.27165      0.036199       1.18737      0.220067        4.8397
         1.32       896.586        37.368        2.2749     0.0367955       1.17169      0.219627       4.82094
        1.325        897.35       34.1983       2.32595     0.0284698      0.991779      0.227053        4.5607
         1.33       896.788       31.0753       2.27461     0.0371804       1.18704      0.219513       4.85067
        1.335       896.842       27.9075       2.27854     0.0377202       1.16471      0.219132       4.82078
         1.34       897.322       25.0353       2.32999      0.029336      0.979762      0.226624       4.55061
        1.345       896.394       22.1188       2.27888     0.0375747       1.17374      0.219512       4.83634
         1.35       896.567        19.628       2.33336     0.0291966      0.967627      0.227021       4.52674
      1.35455       895.794       17.4129       2.31657     0.0315537       1.03903      0.225067       4.62871
      1.35909       895.157       15.4162         2.325     0.0302262       1.00655      0.226333       4.57241
      1.36364       894.479       13.5879       2.32633     0.0297092        1.0078      0.227002       4.58251
      1.36818       893.751       11.9319       2.32709       0.02945       1.00559      0.227316       4.59407
      1.37273       893.064       10.5188       2.36122     0.0238181      0.882527      0.233451       4.42165
      1.37727        891.88       9.09395       2.32239      0.029658       1.03562      0.227939       4.65856
      1.38182       891.031       8.01372       2.36579     0.0255507      0.867272      0.233155       4.41962
      1.38636       889.763       7.03743       2.39212     0.0169808      0.775068      0.237766       4.28964
      1.39091       888.031       5.86923       2.27435     0.0371011       1.20589      0.221167       4.93944
      1.39545       887.956       5.53571       2.44818     0.0088494      0.536485      0.242597       3.94286
          1.4       885.316       4.62206       2.26067     0.0360362       1.27412      0.222687         5.021
      1.40455       885.043       5.00122       2.44301    0.00638657      0.550526      0.243952       3.94379
      1.40909       882.303       4.56608       2.26363     0.0367779       1.25432      0.222568       4.98044
       1.4142       881.447       4.84752       2.39402     0.0156228      0.722357      0.237265       4.17702
      1.41932       879.148       4.60215       2.29101     0.0328046       1.14028      0.223931       4.80702
      1.42443       877.695       4.81901       2.39069     0.0176557      0.749932      0.238359       4.24114
      1.42955       875.403       4.59917       2.29361     0.0337352       1.12848      0.223703       4.81979
      1.43466       873.511       4.71061       2.34675     0.0259737      0.908265      0.230729       4.48294
      1.43977       871.609       4.60526       2.29795     0.0344179       1.09547      0.223194       4.78721
      1.44489       869.656       4.71444       2.34886     0.0261798      0.892273      0.230375       4.46684
         1.45       867.277       4.60352       2.29937     0.0346373       1.07808      0.222871       4.74819
      1.45556       865.392       4.72333       2.35341     0.0256918       0.86754      0.230669       4.42756
      1.46111       863.378       4.58287       2.28317     0.0379172       1.14242      0.219876       4.86678
      1.46667       860.571        4.6596        2.3182     0.0326725      0.980286      0.224388       4.61765
      1.47222       858.855        4.6359       2.30062     0.0356718       1.04283      0.221678       4.72708
      1.47778       855.881       4.66499       2.31767     0.0329439      0.956911      0.223983        4.5792
      1.48333       853.492       4.64337       2.30264     0.0355377       1.00327      0.221601       4.65249
      1.48889       851.064       4.68579        2.3248     0.0317472      0.906553      0.224827       4.50981
      1.49444       848.123       4.76402       2.36123     0.0247891      0.773673      0.230823       4.35108
          1.5       846.146        4.6809       2.31921     0.0317873      0.920335       0.22456       4.57057
      1.50556       842.289       4.67604       2.32306     0.0314641      0.872071      0.224693       4.49764
      1.51111       839.476       4.74365       2.35558     0.0255155      0.736005      0.229784       4.26894
      1.51667       837.406       4.69987       2.33325      0.029064      0.815616      0.226517       4.39229
      1.52222        832.92       4.82717       2.39798     0.0171882      0.561397      0.236786       4.06008
      1.52778       830.761       4.74813       2.35956     0.0231724      0.709447      0.231377       4.23239
      1.53333        826.22       4.75061       2.36149     0.0228919      0.675832       0.23144       4.19334
      1.53889       822.734       4.76831       2.36935     0.0212675      0.637326      0.232698       4.12976
      1.54444       819.041       4.80174       2.38553     0.0180058       0.57172      0.235391       4.04137
         1.55       815.699       4.76825       2.36857     0.0207043      0.627835      0.232846         4.116
      1.55556       811.463       4.83817       2.40184     0.0145809      0.487106      0.238046       3.89122
      1.56111       808.974       4.74432       2.35456     0.0227267      0.658588      0.230725        4.0956
      1.56667       803.943       4.77063        2.3665     0.0207967      0.584988       0.23222       4.03922
      1.57222       800.384       4.76813       2.36335     0.0211079      0.584135       0.23176       4.01842
      1.57778       797.365        4.7421       2.34539     0.0243371      0.634122      0.228737       4.05672
      1.58333       792.822       4.84895       2.39397      0.015293      0.431768       0.23648       3.76716
      1.58889       790.638       4.63898       2.28555      0.034936      0.827655      0.219083       4.30221
      1.59444       786.426       4.85821       2.39583     0.0149724      0.381744      0.236286       3.61189
          1.6       783.093       4.71615        2.3289     0.0265878      0.632378      0.225966       3.96237
      1.60625       777.728       4.68163       2.31849     0.0286672      0.625314      0.223816       3.98134
       1.6125       773.501       4.73383       2.34491     0.0238669      0.509768      0.227768       3.83214
      1.61875       769.336       4.72923       2.34382     0.0236388      0.495536      0.227688       3.77369
        1.625       765.166       4.72892       2.34394     0.0233842      0.470504      0.227616       3.72165
      1.63125       760.769       4.79009       2.37455      0.017416        0.3404      0.232552       3.51116
       1.6375       758.412       4.66918       2.31283     0.0283532      0.560399      0.222679       3.78953
      1.64375       752.346       4.79379       2.37614     0.0168011      0.274437      0.232444       3.34537
         1.65       748.145       4.78424       2.37293      0.016374      0.295053       0.23249       3.41226
      1.65714       742.665       4.79809       2.38121     0.0141595      0.214677      0.234022       3.27973
      1.66429       737.759       4.79355        2.3788      0.014027      0.208847      0.233755       3.26046
      1.67143        732.61       4.81621       2.39011     0.0114319      0.140254      0.235644       3.14795
      1.67857       727.441       4.82927       2.39632    0.00966429     0.0893663      0.236805       3.05129
      1.68571       722.271       4.83574       2.39963    0.00841957     0.0531447      0.237506       3.00278
      1.69286       716.869       4.89531       2.42934    0.00227189    -0.0867592      0.242516       2.78964
          1.7       713.452       4.79208       2.37535     0.0115801     0.0935029      0.233987       3.09564
      1.70714       706.496       4.89247       2.42544    0.00218236     -0.122306      0.241836       2.81139
      1.71429       703.447       4.80638       2.37799     0.0102617     0.0228595      0.234376       3.05954
      1.72143       697.043       4.83293       2.39116    0.00776142    -0.0547934      0.236164       2.94579
      1.72857       692.861       4.80189       2.37184     0.0109708    -0.0170618      0.232954       3.04085
      1.73571       688.069       4.84336       2.39139    0.00710326     -0.119544      0.235969       2.91506
      1.74286       684.068       4.79526       2.37128     0.0103124    -0.0575791      0.232746        3.0382
         1.75       679.351       4.81999       2.38395    0.00780554     -0.161521      0.234544        2.8731
      1.75625       677.011       4.74104       2.34431     0.0149227    -0.0107116      0.227949       3.14499
       1.7625        672.91       4.80404        2.3767    0.00876786      -0.15582      0.232966       2.92025
      1.76875       669.468       4.79928       2.37558    0.00839018     -0.181286      0.232911       2.89849
        1.775       665.737       4.85556       2.40561    0.00230943     -0.318453      0.237865       2.68431
      1.78125        663.83       4.73903       2.34558      0.013141     -0.106486      0.228016       3.08421
       1.7875       659.614       4.91083       2.43593    -0.0041635     -0.479399      0.242704       2.52404
      1.79375       656.955       4.78676        2.3736    0.00654221     -0.260558      0.232966       2.89106
          1.8       652.971       4.84969       2.40568   0.000446644      -0.40814      0.237895       2.64985
      1.80556       650.453       4.89185       2.42895   -0.00465966     -0.504212      0.242039       2.51428
      1.81111        648.04       4.84048         2.403  -0.000380367     -0.422631      0.237918       2.66057
      1.81597       645.699       4.92223       2.44561   -0.00874901     -0.589956      0.244986       2.39862
      1.82083       644.486       4.80188       2.38215    0.00294374      -0.36488      0.234448       2.82502
      1.82569       641.595       4.98732       2.48077    -0.0164491      -0.76134      0.251034       2.23106
      1.83056       640.127       4.82664       2.39609  -0.000710919     -0.437359      0.237081       2.75404
      1.83542       637.597       4.93597       2.45377    -0.0119626     -0.664442      0.246597       2.34186
      1.84028        636.78       4.81915       2.39288   -0.00087371     -0.444729      0.236587       2.74289
      1.84514       634.454       4.95022        2.4613    -0.0139492     -0.733052       0.24778       2.29191
         1.85       632.987       4.93737       2.45578    -0.0136351     -0.714426      0.247233       2.34656
      1.85417       632.276       4.89527       2.43343   -0.00974422     -0.621228      0.243568       2.50954
      1.85833       631.522       4.81479       2.39039   -0.00156824     -0.470839      0.236157       2.75341
      1.86212       630.721       4.86974       2.41882   -0.00702045      -0.60645      0.240751       2.53572
      1.86591       629.192       5.00352       2.49061    -0.0213669     -0.871172      0.253152       2.13219
       1.8697       630.197       4.67706       2.31614     0.0123933     -0.205809      0.223404       3.23138
      1.87348       628.307       5.00294       2.49018    -0.0217494     -0.890647      0.252959       2.16956
      1.87727       629.482       4.69145       2.32362     0.0105605     -0.257977       0.22462       3.16947
      1.88106       627.696       4.99365       2.48492     -0.020893     -0.924195      0.251822       2.15242
      1.88485       628.279       4.84755       2.40731   -0.00642848      -0.57152      0.239083       2.68854
      1.88864       628.572       4.81338       2.38892    -0.0029163      -0.51958      0.235737        2.7559
      1.89242       629.003       4.75561       2.35762    0.00315868     -0.423646      0.230206       2.92102
      1.89621        628.06       4.97585       2.47519    -0.0198718     -0.907093      0.250164        2.2025
          1.9       629.321       4.84254       2.40423   -0.00656621     -0.610914      0.238366       2.64138
      1.90357       629.807       4.87465       2.42077   -0.00983453     -0.672409      0.241031       2.55197
      1.90714       630.625       4.86029       2.41306   -0.00860759     -0.646561      0.239763       2.60281
      1.91071       632.675       4.66403       2.30687     0.0123484     -0.269685      0.221229       3.23041
      1.91429       631.247       5.04494       2.51122     -0.027786      -1.08161      0.256108       1.96857
      1.91786       633.625       4.81946       2.39054   -0.00481168     -0.563084      0.235943       2.76977
      1.92143       635.666       4.76812       2.36265   0.000740215     -0.490865      0.230789       2.89617
        1.925       633.874       5.21855       2.60423    -0.0468343      -1.42671       0.27225       1.44496
      1.92857        640.24       4.51389       2.22633     0.0268166     0.0542199      0.207728       3.75491
      1.93214       638.726       5.00777       2.49003    -0.0244059      -1.04959      0.252138       2.04715
      1.93571       642.116       4.86663       2.41545     -0.010522     -0.721579      0.239952       2.54315
      1.93929        642.83       5.02569       2.50002    -0.0270401      -1.06479      0.254214       2.03405
      1.94286       646.731        4.8486       2.40509   -0.00884355     -0.677394      0.238147       2.63209
      1.94643       649.737       4.84348       2.40177   -0.00806051     -0.696407      0.237215       2.60116
         1.95       650.658       5.03836       2.50626    -0.0286238      -1.11617      0.255051       1.97299
      1.95357       655.298       4.85882       2.40998    -0.0101342     -0.723879      0.238741       2.58067
      1.95689       658.757       4.89538       2.42927    -0.0139915     -0.805717      0.241901       2.44625
       1.9602       659.899       5.09037       2.53414    -0.0347057      -1.22599       0.25989       1.81068
      1.96352       664.638       5.00443       2.48884     -0.026345      -1.02041      0.252455       2.12284
      1.96717        669.44       4.90755       2.43635    -0.0158306     -0.838253      0.243106       2.42138