# Probe 0 (0.8245 0 0.021)
# Probe 1 (0.8245 0 0.061)
# Probe 2 (0.8245 0 0.101)
# Probe 3 (0.8245 0 0.141)
# Probe 4 (0.8035 0 0.162)
# Probe 5 (0.7635 0 0.162)
# Probe 6 (0.7235 0 0.162)
# Probe 7 (0.6835 0 0.162)
#       Probe             0             1             2             3             4             5             6             7
#        Time
   0.00120482       3.81242       3.46372       2.93665       2.28063        1.6416        1.1734      0.935038      0.796929
   0.00265769     -0.367506     -0.666765      -1.06034      -1.37455      -1.57895      -1.65069      -1.64604      -1.56423
   0.00439595      0.718707      0.409752   -0.00932557     -0.396958     -0.698873     -0.863434     -0.920002     -0.897165
   0.00647429       1.00681      0.695218      0.269251     -0.137674     -0.464891     -0.653227     -0.724914     -0.716351
    0.0089355      0.993731      0.682215      0.256505     -0.150267     -0.477382     -0.665627      -0.73722     -0.728996
    0.0118731      0.986764      0.675294      0.249769       -0.1565     -0.482827     -0.670127     -0.740625     -0.730969
    0.0153981       0.99742      0.685894      0.260285     -0.146554     -0.473824     -0.662202     -0.733703     -0.725387
    0.0196282       1.03103      0.719196      0.292821     -0.116443     -0.446946     -0.638355     -0.711669     -0.705047
    0.0246515       1.08407      0.771801       0.34431    -0.0684439     -0.403613      -0.59948      -0.67575     -0.672278
    0.0304475       1.15225      0.839265      0.409856   -0.00824211     -0.350052     -0.551713     -0.630881     -0.630232
    0.0374028       1.18645      0.873131      0.442863     0.0220771     -0.323094     -0.527684     -0.608257      -0.60915
    0.0452274       1.16626      0.853087      0.423192    0.00311523     -0.340832     -0.543869     -0.622683     -0.622231
    0.0543562       1.16117      0.847859      0.417585   -0.00347231     -0.348153     -0.551242     -0.628999      -0.62767
    0.0657671       1.20945      0.895106      0.462043     0.0342345     -0.318106     -0.527152     -0.606816     -0.607053
    0.0771781       1.18285      0.868416      0.435056    0.00618018     -0.346388     -0.554214     -0.630551     -0.628163
     0.088589       1.16081      0.846127      0.412068    -0.0189288     -0.372938     -0.580492      -0.65379     -0.648927
          0.1       1.10164      0.786939      0.352762    -0.0784047     -0.430978     -0.635245     -0.703117      -0.69351
       0.1125       1.16982      0.853435      0.414676    -0.0278657     -0.393091     -0.606795     -0.676789     -0.668986
        0.125        1.2243      0.906431      0.463647     0.0106424     -0.365697     -0.586904     -0.656803     -0.649344
       0.1375       1.29993      0.980177      0.532224     0.0660001     -0.324475     -0.555391     -0.625597     -0.618629
         0.15       1.40255       1.08018      0.625162      0.141099     -0.268912     -0.513968     -0.586436     -0.582249
         0.16       1.10699       0.78729      0.339041     -0.128662     -0.514422     -0.733046     -0.781868     -0.757679
         0.17       1.24325      0.920238      0.463234    -0.0257447     -0.435519     -0.672648     -0.727087     -0.707868
         0.18       1.25792      0.932949        0.4707    -0.0292599     -0.448718     -0.690088     -0.739804     -0.716516
         0.19       1.36429        1.0356      0.563497     0.0413341     -0.401404     -0.658708      -0.70963      -0.68738
          0.2       1.41453       1.08203      0.599938     0.0572911     -0.405087     -0.673701      -0.72138     -0.696369
         0.21       1.46128       1.12427      0.630543     0.0653144     -0.417962     -0.697753     -0.740376     -0.710538
         0.22        1.6241       1.27975      0.767285      0.164819     -0.355836     -0.659943     -0.703038      -0.67297
         0.23       1.69889       1.34661      0.814331       0.17648     -0.376727     -0.698785     -0.736327     -0.701055
         0.24       2.01948        1.6535       1.08746      0.387437     -0.227708     -0.590821     -0.632706     -0.601093
     0.248571       1.90202       1.53098      0.952967      0.235374     -0.388332     -0.745912     -0.765176     -0.716074
     0.257143       2.22739       1.83842       1.21774      0.429465     -0.260959      -0.65978     -0.679925     -0.631798
     0.265714       2.39815       1.99033       1.32617      0.474398      -0.26993     -0.695799     -0.705717     -0.648245
     0.274286        2.8077       2.37081       1.64027      0.690298     -0.141696     -0.618041     -0.624962     -0.565323
     0.282857       3.10705       2.63363       1.82267      0.768635     -0.147134     -0.663008     -0.654014     -0.580391
     0.291429       3.57749       3.05232       2.12961      0.936584    -0.0905991     -0.660615     -0.636305      -0.54998
          0.3       4.27653       3.67378       2.58726       1.20059     0.0204449     -0.624225     -0.583711     -0.483557
     0.308333       4.77444       4.08134       2.81043       1.23542    -0.0725677     -0.759794     -0.680288     -0.549323
     0.316667       5.99824       5.14647       3.55535       1.64781     0.0958177     -0.700404      -0.59578     -0.443103
        0.325       6.99576       5.92607       3.92019       1.65976     -0.102766     -0.951825     -0.784807     -0.582745
     0.333333        9.1692        7.7213       5.02498       2.18026     0.0452725     -0.937767     -0.722676     -0.482322
     0.341667       11.9666       9.85629       6.04843       2.42011     -0.134617       -1.2138     -0.913456     -0.610137
     0.348958       13.9055       11.2911       6.65719       2.47731     -0.335715      -1.43107      -1.03051     -0.668038
      0.35625       19.9241       15.8686       8.96834       3.33884     -0.222202      -1.51229      -1.04746     -0.639836
       0.3625       21.9765       17.2566       9.27114       3.00954     -0.756666      -1.95371      -1.34753     -0.868652
      0.36875       31.1945       24.2223       12.7425       4.33918     -0.486996      -1.93997      -1.27765     -0.762838
        0.375       46.0616       35.2363       17.8859       6.07893     -0.317739       -2.0774      -1.34158     -0.793486
      0.38125       67.3874       50.7782       24.6798       8.00953     -0.457246      -2.46542      -1.59358     -0.985601
       0.3875       101.658       76.0505        36.273       11.8618    -0.0223893      -2.57225      -1.58241     -0.942958
      0.39375       146.179       108.513       50.8704       16.6305      0.492879      -2.73316      -1.64776      -1.04197
          0.4       210.312       154.492       71.1328       23.3475       1.37621       -2.9704      -1.72118      -1.14293
     0.405263       289.076       207.302       89.4956       26.9641      0.589732      -3.42787      -1.83998      -1.20056
     0.410526       412.321        290.93       120.593       35.0089      0.950168      -3.53566      -1.87188      -1.22727
     0.415789       586.816       413.003       171.694       51.8353       3.91872      -3.39227       -1.7503      -1.22035
     0.420743       789.136       554.293       228.671       68.3554       5.25064      -3.72748      -1.81635      -1.24332
     0.425405       1038.39       729.531       300.152       89.2055        6.9054      -4.08447      -1.90873      -1.28084
     0.430067       1426.14       989.715       396.616       115.357       9.18448      -4.61246      -2.18756      -1.50358
      0.43473       1857.99       1268.35        491.12       138.614       11.0409      -5.28691      -2.55435      -1.76718
     0.439081       2282.25        1530.6       569.591       154.371       11.6986      -5.87805      -2.86723      -1.97783
     0.443432       2684.09       1785.81       654.261       174.779       13.3883      -6.55883      -3.35414       -2.2647
     0.447784       3157.84       2091.97        760.77       202.179       16.1199      -7.04549      -3.94563      -2.69791
     0.452135       3622.77       2411.25       889.458       240.295       20.0413      -7.62791      -4.48542      -3.06245
     0.456486       4027.64       2715.98       1035.92       289.932       25.7713      -8.06538      -4.92082       -3.2973
     0.460838       4376.63       3004.84       1196.28       349.437       33.3858      -8.37083      -5.30944      -3.52311
     0.465189       4656.97       3262.11       1358.88       414.398       42.6744      -8.57475       -5.6951      -3.80761
      0.46954       4875.07       3485.67        1517.3       481.632       53.3402      -8.67774      -6.09053      -4.18241
     0.473892       5057.66       3697.23       1694.03       569.639       74.8812      -8.49602        -6.314      -4.34718
     0.478243       5203.06        3885.4       1868.95       663.834        101.73      -7.40864      -6.14635      -4.35039
     0.482595       5303.39       4034.33       2019.84       748.323       127.275       -5.6793      -5.75033      -4.27598
     0.486946       5371.75       4153.17       2151.25       825.137       151.998      -3.68372      -5.39675      -4.35703
     0.491297       5418.99       4250.08        2268.2       897.228        177.26      -1.09116      -4.82496      -4.19421
     0.495649       5451.94       4330.07       2372.58       964.802       202.751       1.94905      -4.22732      -4.07037
          0.5       5471.92       4393.66       2462.75       1025.79       227.249       5.43006      -3.65209      -4.06426
        0.505       5423.76       4405.57       2538.01       1091.75       259.753       10.1431      -2.90399      -4.10247
     0.510588       5417.28       4449.92       2630.57       1165.97       295.539       16.0319       -2.0767      -4.12439
     0.516176        5455.4       4529.49       2743.06       1249.83       334.681       22.5575      -1.22151      -4.16066
     0.521765       5469.47       4584.69       2837.82       1325.88       372.665       29.6971     -0.253006      -4.21359
     0.527783       5448.36       4610.53       2923.58       1405.68       416.323       37.4628       0.73226      -4.37437
     0.533801       5438.61       4638.13       2995.73        1471.1       452.486         45.35       1.96803      -4.24432
     0.539819       5403.74       4637.47        3040.3        1518.9       481.875       53.2258       3.53625       -3.8949
     0.545837       5352.58       4617.16       3063.98       1552.28       504.872       60.2708       5.00257      -3.60698
     0.551855       5296.24       4588.43       3076.86       1577.26       523.225       65.5676       5.68414      -3.74824
     0.557873       5236.95       4554.25        3083.3       1597.59       539.117       69.8257       6.20371      -3.84083
     0.563891       5171.52       4511.09       3079.25       1600.75       533.847        54.761     0.0139318      -5.63502
      0.56991       5103.63       4463.03       3069.03       1614.87        554.95       69.8626       6.03564      -3.55912
     0.575928       5031.96       4408.65       3050.04       1583.25       502.174       10.6963      -14.8206      -9.62492
     0.581946       4968.62       4361.55       3038.14       1622.92       570.769       74.5737       7.34164      -3.44766
     0.587964        4907.3       4315.45       3026.02       1622.77       568.531       66.0066       5.35811      -3.42242
     0.593982       4843.87          4265       3004.78       1571.69       488.523      -13.7719      -15.8724            -8
          0.6       4785.82       4219.39       2987.79       1567.49       486.015      -19.3675       -17.675      -9.43667
     0.606667       4708.02       4156.55       2962.89       1622.95       588.208       73.2039       4.76454      -5.37962
     0.612889       4673.35       4131.21       2957.85       1628.68       595.137        75.832       6.52252      -3.79005
     0.618696       4642.28       4108.21        2951.6       1585.05       520.459       2.60385      -10.0376      -6.02261
     0.624504       4596.99       4072.14       2937.39       1570.85        501.37      -16.8919      -13.8632      -7.06798
     0.629896       4575.96       4058.83       2940.73       1635.33       601.243       70.3765       4.09842      -5.19696
     0.635289       4535.23       4026.03       2927.43       1636.06       606.977       74.0247       6.02185      -3.90299
     0.640681       4497.42       3995.31       2913.93       1607.15       559.987       22.4218      -16.3137      -13.9544
     0.646074       4464.75        3969.8       2906.28       1634.69       610.043       72.1918       4.96099      -4.79358
     0.651467       4432.21       3943.56       2895.66       1620.22       588.408       49.3128     -0.950625      -5.69756
      0.65632       4427.86       3944.14       2904.71       1643.91       619.276       76.2642        8.9314      -2.23455
     0.661173       4397.54       3919.46       2894.44       1644.13       623.326       78.8858       10.5477      -1.04245
     0.666027        4366.8       3893.22       2879.29        1572.2       507.792      -33.1902      -21.3829       -9.3502
      0.67088       4344.84        3876.9       2877.79       1637.84       616.077       66.3625       3.01704       -5.5462
     0.675733       4322.55       3859.36       2872.65        1630.1       602.787       51.8446       1.20921      -4.19045
     0.680587       4301.11       3842.53       2868.08       1626.57       595.667       41.6415      -3.45914      -7.31291
      0.68544       4279.43       3825.28        2863.1       1647.85       632.399       75.6556       8.22725      -2.30729
     0.690293       4258.42       3807.73       2854.65       1583.45        524.99      -29.4662      -22.1038      -11.6254
     0.695147        4242.4       3796.32       2856.42       1651.86       636.188       73.5074       6.42833      -3.94776
          0.7       4222.81       3780.01       2849.52       1625.19       590.468       24.3165      -13.7606      -12.9418
     0.704545       4220.17       3780.98       2858.59       1660.81       640.901       68.7261    -0.0618103      -7.91646
     0.709091       4202.45       3766.55       2854.21       1667.62       653.819       81.4639        7.4978      -4.13507
     0.713636       4183.65       3750.34       2845.99       1640.93       612.222       41.6605      -1.14125       -4.5862
     0.718182       4169.05       3738.81       2844.08       1669.35       659.674       85.9648       12.7612     -0.416552
     0.722995       4138.18       3709.72       2823.16       1625.82       597.066       23.5161      -12.1594      -10.4805
     0.728128       4116.32       3690.92       2816.33       1660.67       660.276       85.8745        10.626      -2.24924
     0.733262       4100.86       3677.32       2808.69       1629.25        609.77       36.1722      -3.80476      -5.67352
     0.738824       4078.52       3657.93       2801.16       1661.02       667.486       91.9427       15.0553      0.717611
     0.744385       4061.07       3641.42       2787.51       1569.13       520.329      -47.2407      -23.4401      -9.96349
     0.750564       4039.99       3624.08       2784.98       1656.07        664.03       83.4268       7.17292       -4.1381
     0.756744       4027.06       3613.43       2781.57       1657.58       665.783       82.1829       5.08676      -4.96922
     0.762923       4018.83       3607.92       2784.43       1667.85       678.434       92.4037       10.8081      -2.10548
     0.769103       4004.96       3595.85       2778.18       1643.48       639.813       55.5011       2.76032      -2.29796
     0.775282       3997.22       3591.14       2782.85       1675.12       686.499        96.154       13.1539      -1.01158
     0.781462       3977.09       3571.57        2765.5       1603.48       578.828      -1.61781      -10.3769      -5.38522
     0.787641       3974.38       3572.72       2778.59       1670.38       675.531       80.5842       7.05196      -2.97935
     0.793821       3964.08       3564.82       2778.49       1684.33       696.127       97.4228        11.766      -1.46726
          0.8       3949.02       3551.23       2770.18       1665.89       669.396       72.0511       5.65395       -1.4961
     0.805882       3947.84       3552.72       2779.04       1691.99       704.023       101.337       14.0672     0.0356844
     0.811419       3938.63       3543.94       2770.43       1618.33       587.099      -5.13838      -9.08661      -3.19057
     0.816955       3931.34       3539.49       2775.49       1668.26       662.987       60.5416       4.81389      -0.93177
     0.822491       3920.21       3530.18       2772.64       1676.26       676.249       71.2198       6.79224      -1.18741
     0.828028       3909.14       3520.69       2768.94       1677.68       679.494        73.342       8.08637      0.371233
     0.833564       3896.84       3509.62       2762.57       1665.23       661.936        57.037       5.26509       1.25569
       0.8391       3885.28       3499.34       2757.27       1662.57       660.138       55.2868       5.35174       1.81845
     0.844637       3873.41       3488.57       2750.87        1651.4        645.08       41.6111       2.92862       2.26616
     0.850173       3862.79       3479.22       2746.38       1651.49       647.462       43.9588       4.91829       4.31724
     0.855709       3851.23       3468.65       2739.85       1639.47       631.479       30.0541       3.32412       5.62543
     0.861246        3840.5       3459.07       2734.71        1636.6       629.705       29.0366       4.85131       7.76718
     0.867705       3811.25       3430.38       2711.85       1616.33       613.094       18.0144       3.80925       9.25056
     0.874164       3801.31       3421.52       2707.04       1604.01       595.943       3.98318       4.57051        12.814
     0.880623       3790.32       3411.61       2701.35       1598.95       591.496       1.44323       6.84268       15.8156
     0.887082       3779.57       3402.04       2696.29       1595.57       589.788       2.17083       11.2797       20.0034
     0.893541       3768.48       3392.18       2691.06       1593.61        590.86       5.95798       17.1344       25.0237
          0.9        3757.3       3382.28       2685.99       1594.43       596.896       15.1355       25.8514       32.0416
     0.905556       3763.44          3390       2696.57       1600.34        599.31       18.3615       34.0652       38.6344
     0.911111       3750.52       3378.13       2688.85       1600.37       606.455       29.3614       43.2601       46.2994
      0.91634       3744.96       3373.66       2687.44       1598.92       605.716       31.0923       49.0548       52.0422
     0.921569       3733.47        3363.1       2680.69       1598.08       610.553       39.6299        57.747       59.9817
     0.926471       3730.62       3361.34       2681.77       1598.07       610.295       41.4211       64.0978        66.539
     0.931373       3719.66       3351.21       2675.13       1597.37       615.653       51.0382       74.2328       76.2184
     0.936275       3709.35       3341.67       2668.89       1596.71       620.743       60.2451       84.1006       85.8417
     0.941176       3699.33       3332.39        2662.8       1596.26       626.311        70.336       95.2139       96.9555
     0.945701       3699.55       3333.64       2666.33       1597.01       625.195       70.5063       100.779        103.54
     0.950226       3689.69       3324.45       2660.23       1597.43       632.222       81.9503       112.446       115.344
     0.954751       3680.27       3315.68        2654.4       1597.74       638.794       92.8075        123.91       127.371
     0.959276       3671.08        3307.1       2648.64       1597.92       645.026       103.205       134.917       138.858
     0.963801       3662.57        3299.2       2643.61       1599.61       653.928       117.304       149.694       153.867
     0.967823       3668.82       3306.59       2652.72       1601.95       650.521       113.329       152.609       157.903
     0.971845       3659.35       3297.63       2646.42       1602.31       657.356       124.137        163.49       169.776
     0.975867       3650.24       3288.98        2640.2       1601.48       661.525       131.535       173.161       182.751
     0.979889       3641.37       3280.52       2634.05       1599.78       663.547       135.766       180.094       193.814
     0.983912       3632.96        3272.5       2628.22       1598.07       665.197       139.475        187.05       205.344
     0.987934       3624.94       3264.87       2622.75       1596.41       666.549        142.74       194.012       217.233
     0.991956       3617.45       3257.78       2617.84       1595.51       669.095       147.742       203.267       232.014
     0.995978       3609.86       3250.57        2612.7       1593.68       669.738       149.951        209.29       243.462
            1       3602.64       3243.74       2607.95       1592.47       671.355       153.425       216.443       256.042
      1.00417       3591.32       3232.64       2599.08       1589.91       674.118       158.787       223.306       267.581
      1.00833       3584.51       3226.23        2594.7       1588.12       674.029       159.714       227.728       277.268
       1.0127       3572.67       3214.63        2585.4        1585.9       678.062       166.969        236.06       290.444
      1.01706       3566.19       3208.59       2581.42       1584.03       677.382        166.96         239.4        299.74
      1.02167       3554.21       3196.87        2572.1       1582.07       682.129         175.3       248.435       313.457
      1.02628       3547.74       3190.88       2568.19       1579.88       680.652       174.076       249.987       320.418
      1.03089       3541.16        3184.8       2564.26       1578.28       680.501       174.636       252.714       327.781
      1.03549       3534.32       3178.48       2560.13       1577.09       681.577       176.983       256.689       335.594
       1.0401       3526.99       3171.64       2555.41       1574.81       680.805       176.652       257.215       338.682
      1.04471        3519.4        3164.5       2550.32       1572.03       679.373       175.464       256.712       340.115
      1.04974        3503.9       3149.28       2537.75       1570.59       689.196       191.878       271.591       355.221
      1.05476       3496.59       3142.49       2533.14       1568.83       689.892       194.323       276.327       362.739
      1.05979       3489.24        3135.7       2528.59       1568.05       692.784       199.956       284.171       372.075
      1.06481        3481.5        3128.5       2523.65       1567.36       696.393       206.785       293.158       382.089
      1.06984       3473.85       3121.41       2518.85        1567.3       701.251       215.389        304.08       393.832
      1.07487       3465.96       3114.08       2513.83       1567.68       707.487        226.29       317.925        409.06
      1.07989       3457.76       3106.41       2508.38       1567.32       712.459        235.27       329.146       421.005
      1.08492       3449.41       3098.58       2502.73       1566.74       717.183       243.887       339.715       432.047
      1.08995       3440.84        3090.5       2496.75       1565.57       720.864        250.94       348.245       440.543
      1.09497       3432.17        3082.3       2490.61       1564.02       724.033        257.54       356.667       448.927
          1.1       3423.42          3074       2484.24        1561.4        725.68       263.013       365.861       459.054
      1.10556        3406.3       3057.15       2469.77       1558.79       735.736       281.073       382.769        473.22
      1.11146       3392.52       3043.73       2458.46       1553.78       737.047       286.517       389.995        480.51
      1.11778       3378.39       3030.01       2446.95       1548.99       738.961       292.855       398.632       489.873
      1.12411       3368.56       3020.63       2439.33        1540.9       731.551         288.9       404.982       500.734
      1.13043       3358.44       3010.96        2431.4       1532.23       723.948        285.88        413.86       513.677
      1.13676       3348.26       3001.28        2423.6       1524.93       718.856       285.796       424.628       527.295
      1.14308       3338.35       2991.94       2416.39       1520.62       719.293       292.548       440.306       543.608
       1.1494       3328.29       2982.45       2409.03       1516.32       720.266       300.625       458.243       561.711
      1.15573       3319.35       2974.31       2403.67       1520.44       735.306       324.149       484.136       583.046
      1.16205        3309.2       2964.75       2396.35       1518.18       740.234       336.782       504.091       601.626
      1.16838       3298.28        2954.3       2387.73       1511.08       736.652       338.935       515.644       615.118
       1.1747       3286.96       2943.37        2378.4       1501.24       728.832       336.743       524.755       627.842
      1.18103       3276.49       2933.42       2370.42       1496.21       728.643       342.392       536.221        640.79
      1.18735       3266.14       2923.63       2362.68       1492.48       731.211       351.951       551.342       656.832
      1.19368       3255.88       2913.93        2355.1       1489.62       735.424       363.445       566.922       671.973
          1.2       3245.75       2904.39       2347.72       1487.73       741.662       377.762       584.789       688.559
      1.20667       3232.35       2891.57       2337.36       1487.44       754.367       400.893        607.35       706.786
      1.21333       3222.15          2882       2330.08       1486.42       762.632       418.152       627.371       724.669
         1.22       3212.09       2872.61       2323.03        1486.4       773.013       438.345       649.243       742.926
      1.22667       3202.07       2863.25       2316.07       1487.07       784.979       460.824       672.642       762.474
      1.23278       3197.45       2859.31       2314.09       1485.88       788.287       471.531       688.613       777.382
      1.23889       3187.66       2850.15       2307.29       1487.72       802.592       496.709       712.148       795.578
        1.245       3177.78        2840.9       2300.36       1489.33       816.569       521.632       736.079       815.189
      1.25111       3167.98       2831.71       2293.46       1490.88       830.277       545.887       758.416        833.57
      1.25722       3158.33       2822.66       2286.67       1492.43       843.734       569.667       780.722       853.004
      1.26333       3148.69       2813.61       2279.83       1493.71       856.241       591.746       801.844       872.713
      1.26944        3139.2       2804.72       2273.17       1495.37       869.333       614.659       824.503       894.864
      1.27556       3129.87          2796        2266.7        1497.5       883.257       638.756       848.689       918.213
      1.28167       3120.88       2787.64       2260.66       1500.79       899.607       666.768       878.066        948.09
      1.28778       3111.71       2779.06       2254.29       1502.77       913.521       691.563       904.334       974.355
      1.29389       3102.27       2770.16       2247.42       1502.71       922.714       708.955       923.313       996.258
          1.3       3092.89       2761.33       2240.64       1502.95       930.593       722.033       936.047       1011.83
      1.30556       3089.62       2758.68       2239.81       1502.77       934.015       732.337       956.005       1032.58
      1.31111       3081.23       2750.86       2234.18       1506.25       947.886       753.737       977.464       1055.83
      1.31667       3072.53       2742.71       2228.11       1508.54       959.141       770.799       993.391       1075.44
      1.32222       3063.39          2734       2221.15       1507.37       961.135       771.701       990.988       1084.55
      1.32778       3054.43       2725.48       2214.36        1506.4       962.864       771.415       986.406        1091.7
      1.33333        3046.2       2717.75       2208.57       1508.32       971.342       782.462       995.521       1109.81
      1.33889       3038.39       2710.51       2203.43       1512.27       985.159       802.889       1015.29       1134.46
      1.34444       3030.77       2703.45       2198.45       1516.33       999.555       824.641       1036.38       1159.83
         1.35       3023.16        2696.4        2193.5       1520.43       1014.35       847.428       1059.09        1185.8
      1.35556       3015.64       2689.43        2188.6       1524.33        1028.6       869.432       1081.36       1213.08
      1.36111       3007.99       2682.33       2183.52        1527.7       1041.37       888.608       1099.23       1233.86
      1.36667       3000.46       2675.37       2178.68       1531.89       1055.99       910.753       1120.78       1258.04
      1.37222       2993.38       2668.96       2174.63       1538.62       1076.75       944.006       1159.62       1296.93
      1.37778       2986.05        2662.2       2169.99       1542.95        1091.1       965.174       1179.43       1320.63
      1.38333       2978.96       2655.68       2165.57       1547.37       1104.76       984.247       1195.12       1343.37
      1.38889       2972.22       2649.55       2161.66        1553.2       1121.45       1008.46       1218.48       1374.04