# Probe 0 (0.8245 0 0.021)
# Probe 1 (0.8245 0 0.061)
# Probe 2 (0.8245 0 0.101)
# Probe 3 (0.8245 0 0.141)
# Probe 4 (0.8035 0 0.162)
# Probe 5 (0.7635 0 0.162)
# Probe 6 (0.7235 0 0.162)
# Probe 7 (0.6835 0 0.162)
#       Probe             0             1             2             3             4             5             6             7
#        Time
   0.00120482       4.10618       4.05715       3.92464       3.58533       3.15463       2.76276        2.5244       2.30849
   0.00265769    -0.0737405    -0.0733364    -0.0723506    -0.0698457    -0.0659178    -0.0613355    -0.0566799    -0.0526666
   0.00439595       1.01247       1.00318      0.978667      0.907748      0.814163      0.725924      0.669357      0.614398
   0.00647429       1.30058       1.28865       1.25724       1.16703       1.04814      0.936132      0.864444      0.795212
    0.0089355        1.2875       1.27564        1.2445       1.15444       1.03565      0.923731      0.852139      0.782567
    0.0118731       1.28053       1.26872       1.23776       1.14821       1.03021      0.919231      0.848734      0.780594
    0.0153981       1.29119       1.27932       1.24828       1.15815       1.03921      0.927156      0.855656      0.786176
    0.0196282        1.3248       1.31262       1.28081       1.18826       1.06609      0.951003      0.877689      0.806516
    0.0246515       1.37784       1.36523        1.3323       1.23626       1.10942      0.989878      0.913608      0.839285
    0.0304475       1.44601       1.43269       1.39785       1.29646       1.16298       1.03765      0.958478      0.881331
    0.0374028       1.48021       1.46656       1.43086       1.32678       1.18994       1.06167      0.981101      0.902413
    0.0452274       1.46003       1.44652       1.41118       1.30782        1.1722       1.04549      0.966675      0.889332
    0.0543562       1.45494       1.44129       1.40558       1.30123       1.16488       1.03812      0.960359      0.883893
    0.0657671       1.50321       1.48854       1.45004       1.33894       1.19493       1.06221      0.982543       0.90451
    0.0771781       1.47662       1.46184       1.42305       1.31089       1.16665       1.03514      0.958807        0.8834
     0.088589       1.45458       1.43956       1.40006       1.28578        1.1401       1.00887      0.935568      0.862636
          0.1       1.39541       1.38037       1.34076        1.2263       1.08206      0.954113      0.886241      0.818053
       0.1125       1.46359       1.44686       1.40267       1.27684       1.11994      0.982563       0.91257      0.842577
        0.125       1.51806       1.49986       1.45164       1.31535       1.14734       1.00245      0.932555      0.862219
       0.1375        1.5937       1.57361       1.52022       1.37071       1.18856       1.03397      0.963762      0.892934
         0.15       1.69632       1.67361       1.61315        1.4458       1.24412       1.07539       1.00292      0.929314
         0.16       1.40076       1.38072       1.32703       1.17604      0.998613      0.856312       0.80749      0.753883
         0.17       1.53702       1.51367       1.45123       1.27896       1.07752       0.91671      0.862271      0.803695
         0.18       1.55168       1.52638       1.45869       1.27545       1.06432      0.899271      0.849555      0.795047
         0.19       1.65806       1.62903       1.55149       1.34604       1.11163       0.93065      0.879729      0.824183
          0.2        1.7083       1.67546       1.58793         1.362       1.10795      0.915657      0.867979      0.815194
         0.21       1.75504        1.7177       1.61854       1.37002       1.09507      0.891606      0.848982      0.801025
         0.22       1.91787       1.87318       1.75528       1.46952        1.1572      0.929416      0.886321      0.838592
         0.23       1.99266       1.94004       1.80232       1.48119       1.13631      0.890573      0.853032      0.810508
         0.24       2.31324       2.24693       2.07545       1.69214       1.28533      0.998538      0.956653       0.91047
     0.248571       2.19579       2.12441       1.94096       1.54008        1.1247      0.843446      0.824183      0.795489
     0.257143       2.52116       2.43186       2.20574       1.73417       1.25208      0.929578      0.909433      0.879765
     0.265714       2.69193       2.58377       2.31417       1.77911       1.24311       0.89356      0.883641      0.863318
     0.274286       3.10148       2.96426       2.62827       1.99501       1.37134      0.971317      0.964396       0.94624
     0.282857       3.40086       3.22712        2.8107       2.07336       1.36591       0.92635      0.935345      0.931172
     0.291429       3.87138       3.64591       3.11771       2.24134       1.42245      0.928743      0.953053      0.961582
          0.3       4.57064       4.26766       3.57555       2.50543       1.53352      0.965134       1.00565       1.02801
     0.308333       5.06903       4.67586       3.79914       2.54046       1.44056      0.829565      0.909071       0.96224
     0.316667       6.29407       5.74263       4.54517       2.95341        1.6091      0.888957      0.993579       1.06846
        0.325       7.29477       6.52647         4.913       2.96691       1.41101      0.637542      0.804553      0.928818
     0.333333       9.47683       8.33405       6.02727       3.49239       1.56054      0.651616      0.866687       1.02924
     0.341667       12.2986       10.5063       7.08164       3.74875       1.38554      0.375627      0.675917      0.901427
     0.348958       14.2679       11.9922       7.73792       3.83263       1.19269      0.158392      0.558868      0.843527
      0.35625       20.3526       16.6777       10.1471       4.74908       1.32333     0.0772734      0.541939      0.871731
       0.3625         22.47       18.1806        10.568       4.49145      0.813563     -0.364124      0.241875      0.642914
      0.36875       31.8082       25.3496       14.2387       5.94082       1.12501     -0.349287      0.311921      0.748729
        0.375       46.8981       36.7471       19.7601       7.90668        1.3733     -0.482571      0.248612      0.718083
      0.38125       68.6235       53.0017       27.2816       10.2831       1.39791     -0.854418  -0.000815864      0.526049
       0.3875       103.578       79.5599       40.2323       14.9665       2.13507     -0.930173     0.0152824      0.568838
      0.39375       149.197       114.162       57.0968       21.0941       3.12716      -1.03672    -0.0415436      0.470035
          0.4       214.925       163.224       80.6173       29.7775       4.71487        -1.184     -0.100942      0.369377
     0.405263       295.443       219.637       102.914       35.7478       4.73909      -1.55177     -0.205454      0.312159
     0.410526        421.37       308.539       139.564       47.0638       6.20671      -1.53949     -0.218359       0.28592
     0.415789       599.623       437.997       198.469       68.5095       10.7501      -1.22942    -0.0707702      0.293326
     0.420743       806.579       588.444        265.35       91.0383       14.2052      -1.35436     -0.104336        0.2708
     0.425405       1061.37        774.63       348.943       119.431       18.6251      -1.45334     -0.157453      0.233553
     0.430067       1458.31       1050.56       461.286       155.504       24.6848      -1.63219     -0.385333     0.0101843
      0.43473       1904.26       1351.68       576.221       190.836       30.9271      -1.83859     -0.684934     -0.254794
     0.439081       2345.94        1641.6        677.98       219.033       35.4601      -1.89956     -0.917145     -0.464999
     0.443432       2768.46       1929.74       790.265       254.096       41.6702      -1.93087      -1.30488     -0.751215
     0.447784       3266.76       2275.03       929.681       298.997       49.8185      -1.64143      -1.77742      -1.18346
     0.452135       3757.73       2637.71       1097.87       359.428       61.2115      -1.31011      -2.17664      -1.54665
     0.456486       4187.54       2987.29       1291.01       438.167       77.8909     -0.669647      -2.44566      -1.77962
     0.460838       4559.56       3320.56       1505.06       534.948       101.234      0.301123      -2.63678      -2.00291
     0.465189       4860.43       3620.04       1727.71       646.205       132.027       1.61444      -2.78743      -2.28412
      0.46954       5096.19       3882.22       1951.71       769.089       170.588       3.31704      -2.90301      -2.65471
     0.473892       5293.45       4127.74       2196.32         919.1       224.952       5.63878      -2.79469      -2.81427
     0.478243       5450.61       4344.56       2437.05       1077.14       287.406        9.7278      -2.16629      -2.81116
     0.482595       5560.13        4516.8       2647.87       1223.23       349.546       16.2166      -1.04851      -2.72917
     0.486946       5635.51       4654.16       2831.97       1357.68       411.094       25.2627      0.366179      -2.80089
     0.491297       5688.07       4765.61       2993.88       1482.92       473.637       38.1924       2.48523      -2.62654
     0.495649       5725.08       4856.97       3135.64       1598.67        536.39       54.8309       5.11663      -2.48756
          0.5       5748.22       4929.53       3256.17       1703.08       598.176       75.3073       8.23381      -2.46148
        0.505          5703       4949.87       3359.27       1814.17       673.895       103.625       12.5188      -2.47094
     0.510588       5699.13       5002.19       3476.82       1935.12       759.252       140.553       18.0123      -2.45163
     0.516176       5739.37        5088.5       3608.28       2061.93       849.048       182.591       24.2259       -2.4365
     0.521765       5755.29       5149.41       3717.14       2177.46       937.811       228.104       31.0267      -2.42604
     0.527783       5735.91       5180.51       3814.74       2296.74       1035.06       278.004       38.4906      -2.50362
     0.533801       5727.64       5212.52       3896.21       2398.35        1122.2       326.966       46.1363      -2.27545
     0.539819          5694       5215.55       3948.54       2478.85       1198.49       372.989       53.7753      -1.81147
     0.545837       5643.85       5198.29       3978.93       2541.09       1263.05       413.826       60.7425      -1.39546
     0.551855       5588.35       5172.16       3997.93       2590.89        1316.8       447.644       66.1958      -1.40051
     0.557873       5529.66       5139.88       4009.58       2631.54       1361.42       474.723       70.6687      -1.35554
     0.563891       5464.63       5098.06       4010.09       2650.98       1378.67       477.111       67.6307      -3.02196
      0.56991       5396.97       5050.92       4003.96       2677.32       1415.92       504.141       75.9732     -0.811911
     0.575928       5325.33       4996.91       3988.43       2654.84       1374.61       452.827       56.7911      -6.75745
     0.581946       5262.03       4950.18       3980.07       2700.32       1448.98       519.477        79.773     -0.469116
     0.587964       5200.73       4904.45       3971.59       2705.13       1450.75       511.961       78.0954     -0.330201
     0.593982       5137.32       4854.35       3953.72       2658.89       1374.83        433.39       57.0909       -4.8766
          0.6       5079.29       4809.05       3939.81       2658.31       1374.81       427.777       55.3359      -6.33377
     0.606667       5001.51       4746.57       3918.44       2716.89       1478.02       518.731       77.5493      -2.26209
     0.612889       4966.87       4721.52       3916.29       2724.13       1484.13       518.564       78.9025     -0.662145
     0.618696       4935.81       4698.78       3912.45        2681.5       1408.35       442.606       61.9406      -2.91602
     0.624504       4890.53       4662.95       3900.62       2669.15       1389.57       421.682       57.9351      -3.97404
     0.629896       4869.52       4649.84       3905.94       2734.85       1489.18       507.326       75.6982      -2.07232
     0.635289       4828.81       4617.26       3894.63       2736.57       1494.24           509       77.3564     -0.739283
     0.640681       4791.01       4586.74        3883.1        2708.8       1446.85       455.693       54.8147      -10.7457
     0.646074       4758.36       4561.43       3877.39       2737.32       1496.25       503.562        75.855       -1.5446
     0.651467       4725.82       4535.37       3868.65       2724.39       1474.95       479.712       69.8481      -2.39711
      0.65632       4721.49        4536.1       3879.16        2749.4       1506.27       506.071        79.681       1.11137
     0.661173       4691.18       4511.57       3870.37       2751.09       1510.97       508.277       81.2737       2.35131
     0.666027       4660.44       4485.47        3856.7        2682.4       1399.01       398.351       49.6658      -5.94426
      0.67088       4638.49       4469.29       3856.64       2750.71       1509.97       499.303       74.3111      -2.10359
     0.675733        4616.2       4451.89       3852.87       2745.75       1499.64       486.488       72.8029     -0.711754
     0.680587       4594.77       4435.18       3849.61       2745.09        1495.7       478.239       68.4833      -3.79656
      0.68544        4573.1       4418.06       3845.86       2769.13       1535.53       514.186       80.5166       1.25498
     0.690293       4552.09       4400.61       3838.55       2708.76       1433.43        412.98       50.8187      -8.05073
     0.695147       4536.07       4389.31       3841.36       2780.59       1549.04       519.178       79.8956     -0.338669
          0.7       4516.49       4373.09       3835.29       2757.81       1508.78       474.294       60.4368      -9.26935
     0.704545       4513.86       4374.11        3844.9       2796.21       1563.21       521.861       74.6393       -4.2208
     0.709091       4496.14       4359.73       3840.86       2805.14       1579.31       537.199       82.6783      -0.39135
     0.713636       4477.34       4343.54       3832.88        2781.1       1541.86       500.908       74.6266     -0.801199
     0.718182       4462.75       4332.04       3831.14       2811.78       1592.91       548.296         89.06       3.42794
     0.722995       4431.88       4302.96       3810.34       2771.41       1535.43       490.335       64.8939      -6.55707
     0.728128       4410.02       4284.19       3803.63       2808.63       1602.49       556.036       88.2726       1.73939
     0.733262       4394.57        4270.6       3796.11       2780.43       1557.23       510.926       74.6271      -1.62362
     0.738824       4372.23       4251.23        3788.7       2814.87        1619.3       570.527       94.1864       4.85774
     0.744385       4354.79       4234.73       3775.15       2728.56       1481.28        439.39       56.9868      -5.74903
     0.750564       4333.71       4217.42       3772.75       2820.63       1633.33       577.408       88.7981      0.178796
     0.756744       4320.79       4206.78       3769.43       2826.72       1642.58       582.813       87.8233     -0.521087
     0.762923       4312.56       4201.28       3772.31        2840.5       1661.07       598.284       94.4895       2.47273
     0.769103       4298.69       4189.22       3766.07       2820.47       1629.73       567.942       87.6383       2.41672
     0.775282       4290.96       4184.51       3770.75       2855.53        1682.1       613.723        98.956       3.85085
     0.781462       4270.83       4164.95       3753.41       2788.85       1583.48       525.401       78.7462      0.378026
     0.787641       4268.13       4166.11        3766.5       2860.65       1687.56       612.982       95.5117       2.22514
     0.793821       4257.83        4158.2       3766.41       2879.24       1715.84       636.724       101.406       3.89097
          0.8       4242.76       4144.62       3758.11        2865.6       1697.19       618.845       96.8591       4.14299
     0.805882       4241.59       4146.11       3766.97       2895.34        1737.8       653.459       106.108       5.77041
     0.811419       4232.38       4137.33       3758.37       2825.37       1628.81       557.128       88.5258        4.3744
     0.816955       4225.09       4132.89       3763.43       2879.48       1711.43       628.612       103.067       6.63281
     0.822491       4213.96       4123.58       3760.58       2891.71       1731.51       645.197       105.723       6.39493
     0.828028       4202.89       4114.09       3756.89        2897.2       1741.43       653.322       107.993        8.1029
     0.833564        4190.6       4103.02       3750.53       2888.94       1730.84       643.472       106.458       9.24759
       0.8391       4179.03       4092.75       3745.23       2890.45          1736       648.216       107.891       10.1051
     0.844637       4167.16       4081.98       3738.83       2883.53       1728.16       641.446       107.114       10.9555
     0.850173       4156.55       4072.63       3734.34       2887.65       1737.48       650.646       110.983       13.5296
     0.855709       4144.98       4062.06       3727.81        2879.7       1728.65       644.027       111.637       15.5046
     0.861246       4134.25       4052.48       3722.68       2880.65        1733.8        650.39       115.819        18.502
     0.867705       4105.01       4023.79       3699.81        2864.3        1724.7       648.022       118.574       21.3112
     0.874164       4095.06       4014.93       3695.01       2854.85       1714.02        642.84        124.61       26.8654
     0.880623       4084.07       4005.02       3689.31       2852.74       1716.69       650.618       133.531       32.3933
     0.887082       4073.32       3995.45       3684.25       2851.96       1722.12       662.666       146.038       39.6952
     0.893541       4062.24       3985.59       3679.03       2852.17       1730.17       678.557       161.276       48.3821
          0.9       4051.06        3975.7       3673.96       2854.72       1742.89       700.282       180.355       59.4932
     0.905556       4057.19       3983.42       3684.54        2861.7       1750.73       714.669       198.361       69.9831
     0.911111       4044.28       3971.54       3676.82       2862.31       1762.85       736.981       218.098       81.8948
      0.91634       4038.72       3967.07       3675.41       2861.22       1766.62       749.453       234.139       91.7886
     0.921569       4027.23       3956.52       3668.67       2860.54       1775.71       768.609       253.203       103.958
     0.926471       4024.38       3954.76       3669.74        2860.3       1779.01        780.28       269.663       114.673
     0.931373       4013.42       3944.63        3663.1       2859.16       1787.66       799.674       290.063       128.602
     0.936275       4003.11       3935.09       3656.86       2858.01       1795.97        818.58       310.185       142.492
     0.941176       3993.09        3925.8       3650.78        2857.1       1804.76       838.295       331.443       157.841
     0.945701       3993.31       3927.06       3654.31        2857.6        1806.8       847.367       346.222        168.31
     0.950226       3983.45       3917.87        3648.2       2857.79       1816.95       867.499       366.908       183.977
     0.954751       3974.03        3909.1       3642.37       2857.93       1826.55       886.711       387.147       199.902
     0.959276       3964.84       3900.51       3636.62       2857.98       1835.71       905.069       406.658       215.348
     0.963801       3956.33       3892.62       3631.59        2859.6       1847.41       926.672       429.654       234.408
     0.967823       3962.58       3900.01       3640.69       2862.05       1846.53       929.071       439.637       242.167
     0.971845       3953.11       3891.05       3634.39       2862.48       1855.69       945.832       457.432       257.918
     0.975867          3944        3882.4       3628.18       2861.74       1862.03       958.782        473.87       274.931
     0.979889       3935.13       3873.94       3622.03       2860.18       1866.14       968.269       487.458       290.195
     0.983912       3926.72       3865.93        3616.2       2858.68       1869.88       977.048       501.029       306.105
     0.987934        3918.7       3858.29       3610.74       2857.23       1873.27        985.27       514.711       322.602
     0.991956       3911.21       3851.21       3605.82       2856.59       1877.86       995.205       530.855       342.246
     0.995978       3903.62          3844       3600.69       2855.05        1880.6       1002.39       543.982       358.823
            1        3896.4       3837.16       3595.94       2854.19       1884.41       1010.94       558.501        376.82
      1.00417       3885.08       3826.07       3587.07       2852.03       1889.51       1021.67       573.312       394.286
      1.00833       3878.27       3819.65       3582.68       2850.73       1891.92       1028.17       586.042       410.259
       1.0127       3866.43       3808.05       3573.39       2849.07       1898.68       1041.44       603.479       430.392
      1.01706       3859.96       3802.01        3569.4       2847.87       1900.93       1047.72       616.281        446.96
      1.02167       3847.97       3790.29       3560.08       2846.68       1908.93       1062.93       635.709       468.696
      1.02628        3841.5        3784.3       3556.18       2845.38       1910.93        1068.9       648.086       484.056
      1.03089       3834.92       3778.23       3552.25       2844.78       1914.51       1076.97       662.092       500.209
      1.03549       3828.08        3771.9       3548.12       2844.71       1919.53       1087.14       677.759       517.152
       1.0401       3820.75       3765.06        3543.4       2843.62       1922.88       1094.91       690.409       529.742
      1.04471       3813.16       3757.92       3538.31        2842.1       1925.72       1102.07       702.481        541.08
      1.04974       3797.66        3742.7       3525.74       2842.02       1940.71       1128.96       732.769        567.91
      1.05476       3790.35       3735.92       3521.13       2841.74       1946.99       1142.68       753.985       587.898
      1.05979       3783.01       3729.12       3516.58       2842.52       1955.53       1159.59       778.583       610.137
      1.06481       3775.26       3721.92       3511.64       2843.47       1964.82       1177.61       804.495       633.418
      1.06984       3767.61       3714.84       3506.84       2845.09       1975.32       1197.28       832.522       658.794
      1.07487       3759.72       3707.51       3501.82       2847.15        1987.1       1219.06       863.674        688.05
      1.07989       3751.52       3699.84       3496.37       2848.47       1997.52       1238.68       892.189         714.2
      1.08492       3743.17          3692       3490.72       2849.57       2007.56       1257.66       919.834       739.418
      1.08995        3734.6       3683.92       3484.74       2850.05        2016.4       1274.75       945.159       761.995
      1.09497       3725.93       3675.73        3478.6       2850.11       2024.57       1291.06        970.09        784.34
          1.1       3717.19       3667.43       3472.22       2849.07       2031.08       1306.01       995.548       808.285
      1.10556       3700.06       3650.58       3457.75        2848.1       2046.33       1334.31       1030.17       837.513
      1.11146       3686.28       3637.16       3446.44       2844.86       2053.09       1350.45       1056.18       860.923
      1.11778       3672.15       3623.43       3434.94          2842       2060.84       1368.19       1085.25           888
      1.12411       3662.32       3614.06       3427.31       2835.73       2059.15       1375.59       1111.81       916.238
      1.13043       3652.21       3604.39       3419.39       2828.64       2057.06       1384.01       1140.83       946.127
      1.13676       3642.02        3594.7       3411.58       2822.63       2057.24       1395.43        1171.6       976.167
      1.14308       3632.11       3585.37       3404.38       2819.38       2062.77       1413.85       1207.75       1009.13
       1.1494       3622.05       3575.88       3397.01       2815.99       2068.78       1433.77       1246.14       1043.55
      1.15573       3613.12       3567.73       3391.66       2821.64       2089.14       1468.04       1289.84       1079.47
      1.16205       3602.96       3558.18       3384.34       2820.91       2099.37       1491.21       1326.32       1111.24
      1.16838       3592.04       3547.72       3375.72       2814.81       2100.53       1503.69       1353.48       1136.39
       1.1747       3580.72        3536.8       3366.39        2805.1       2096.59       1511.84       1378.08       1159.75
      1.18103       3570.25       3526.85       3358.41       2800.11       2100.42        1528.2       1404.58        1182.4
      1.18735       3559.91       3517.05       3350.67       2796.42       2107.18       1548.87       1434.47       1207.42
      1.19368       3549.65       3507.36       3343.08       2793.58       2115.73       1571.76       1464.46       1230.86
          1.2       3539.52       3497.82       3335.71       2791.71       2126.42        1597.7       1496.41       1255.11
      1.20667       3526.12          3485       3325.35        2791.4       2143.85       1633.17       1533.38       1280.81
      1.21333       3515.91       3475.43       3318.07       2790.39       2156.86       1662.66       1566.98       1305.23
         1.22       3505.86       3466.03       3311.02       2790.38       2171.97       1694.88       1601.53       1329.09
      1.22667       3495.83       3456.67       3304.06       2791.06       2188.57       1729.03       1636.53       1353.24
      1.23278       3491.21       3452.73       3302.08       2789.95       2196.06       1749.99       1661.88       1371.22
      1.23889       3481.42       3443.58       3295.28       2791.84       2214.37       1784.95       1693.82       1391.64
        1.245       3471.54       3434.32       3288.35       2793.47       2232.14       1819.08       1724.99       1412.68
      1.25111       3461.75       3425.14       3281.45       2795.03       2249.41       1851.84       1753.24       1431.58
      1.25722       3452.09       3416.09       3274.65        2796.6       2266.16       1883.37       1780.16       1450.67
      1.26333       3442.45       3407.04       3267.82        2797.9       2281.66       1912.37       1804.62       1469.12
      1.26944       3432.96       3398.15       3261.16       2799.58       2297.44       1941.33       1829.26       1488.97
      1.27556       3423.64       3389.43       3254.69       2801.73       2313.71       1970.53       1853.94       1508.84
      1.28167       3414.64       3381.07       3248.65       2805.03       2332.05       2002.61       1882.17       1534.06
      1.28778       3405.47       3372.49       3242.28       2807.02       2347.18       2029.66       1906.26       1556.13
      1.29389       3396.03       3363.58       3235.41       2806.98       2356.64       2047.13       1922.58        1575.3
          1.3       3386.65       3354.75       3228.63       2807.23       2364.44       2059.36       1931.46       1587.89
      1.30556       3383.39        3352.1       3227.79        2807.1       2367.56       2068.15       1946.77       1604.62
      1.31111          3375       3344.29       3222.17       2810.61       2380.92       2087.54       1962.87       1623.74
      1.31667       3366.29       3336.13        3216.1       2812.92       2391.48       2102.07       1972.69       1638.94
      1.32222       3357.16       3327.43       3209.14       2811.76        2392.6       2100.07       1964.09       1644.21
      1.32778        3348.2        3318.9       3202.34        2810.8       2393.46       2096.93       1953.68        1648.4
      1.33333       3339.97       3311.18       3196.56       2812.74       2401.18       2105.45       1957.47       1664.44
      1.33889       3332.15       3303.93       3191.42       2816.69       2414.34       2123.59        1972.1       1687.71
      1.34444       3324.53       3296.87       3186.44       2820.77        2428.1        2143.1       1987.97       1712.27
         1.35       3316.92       3289.83       3181.49       2824.88       2442.22       2163.52       2005.15       1737.94
      1.35556        3309.4       3282.86       3176.58       2828.79        2455.7        2182.9       2021.69        1765.9
      1.36111       3301.76       3275.76       3171.51       2832.16       2467.61       2199.21       2033.54       1788.23
      1.36667       3294.22        3268.8       3166.67       2836.36        2481.3       2218.27       2048.55       1814.75
      1.37222       3287.15       3262.39       3162.62        2843.1       2501.04       2248.15       2080.23       1852.15
      1.37778       3279.81       3255.63       3157.98       2847.44       2514.22        2265.5       2092.04       1874.09
      1.38333       3272.72       3249.11       3153.56       2851.87       2526.58       2280.38       2099.09        1895.7
      1.38889       3265.98       3242.98       3149.65        2857.7       2541.86       2300.08       2113.34       1926.11