-5 	348.432 	100000 	0.999645 	-1.67015e-13 	0 	0
-4.98999 	348.432 	100000 	0.999645 	-1.67015e-13 	0 	0
-4.97998 	348.432 	100000 	0.999645 	-1.67015e-13 	0 	0
-4.96997 	348.432 	100000 	0.999645 	-1.67015e-13 	0 	0
-4.95996 	348.432 	100000 	0.999645 	-1.67015e-13 	0 	0
-4.94995 	348.432 	100000 	0.999645 	-1.66999e-13 	0 	0
-4.93994 	348.432 	100000 	0.999645 	-1.63798e-13 	0 	0
-4.92993 	348.432 	100000 	0.999645 	-1.60597e-13 	0 	0
-4.91992 	348.432 	100000 	0.999645 	-1.57397e-13 	0 	0
-4.90991 	348.432 	100000 	0.999645 	-1.54196e-13 	0 	0
-4.8999 	348.432 	100000 	0.999645 	-1.50995e-13 	0 	0
-4.88989 	348.432 	100000 	0.999645 	-1.47794e-13 	0 	0
-4.87988 	348.432 	100000 	0.999645 	-1.44593e-13 	0 	0
-4.86987 	348.432 	100000 	0.999645 	-1.41393e-13 	0 	0
-4.85986 	348.432 	100000 	0.999645 	-1.38192e-13 	0 	0
-4.84985 	348.432 	100000 	0.999645 	-1.34756e-13 	0 	0
-4.83984 	348.432 	100000 	0.999645 	-1.15914e-13 	0 	0
-4.82983 	348.432 	100000 	0.999645 	-9.70717e-14 	0 	0
-4.81982 	348.432 	100000 	0.999645 	-7.82294e-14 	0 	0
-4.80981 	348.432 	100000 	0.999645 	-5.93871e-14 	0 	0
-4.7998 	348.432 	100000 	0.999645 	-4.05448e-14 	0 	0
-4.78979 	348.432 	100000 	0.999645 	-2.17025e-14 	0 	0
-4.77978 	348.432 	100000 	0.999645 	-2.86018e-15 	0 	0
-4.76977 	348.432 	100000 	0.999645 	1.59821e-14 	0 	0
-4.75976 	348.432 	100000 	0.999645 	3.48244e-14 	0 	0
-4.74975 	348.432 	100000 	0.999645 	5.34567e-14 	0 	0
-4.73974 	348.432 	100000 	0.999645 	6.38973e-14 	0 	0
-4.72973 	348.432 	100000 	0.999645 	7.43379e-14 	0 	0
-4.71972 	348.432 	100000 	0.999645 	8.47784e-14 	0 	0
-4.70971 	348.432 	100000 	0.999645 	9.5219e-14 	0 	0
-4.6997 	348.432 	100000 	0.999645 	1.0566e-13 	0 	0
-4.68969 	348.432 	100000 	0.999645 	1.161e-13 	0 	0
-4.67968 	348.432 	100000 	0.999645 	1.26541e-13 	0 	0
-4.66967 	348.432 	100000 	0.999645 	1.36981e-13 	0 	0
-4.65966 	348.432 	100000 	0.999645 	1.47422e-13 	0 	0
-4.64965 	348.432 	100000 	0.999645 	1.57116e-13 	0 	0
-4.63964 	348.432 	100000 	0.999645 	1.46226e-13 	0 	0
-4.62963 	348.432 	100000 	0.999645 	1.35335e-13 	0 	0
-4.61962 	348.432 	100000 	0.999645 	1.24445e-13 	0 	0
-4.60961 	348.432 	100000 	0.999645 	1.13555e-13 	0 	0
-4.5996 	348.432 	100000 	0.999645 	1.02664e-13 	0 	0
-4.58959 	348.432 	100000 	0.999645 	9.17741e-14 	0 	0
-4.57958 	348.432 	100000 	0.999645 	8.08838e-14 	0 	0
-4.56957 	348.432 	100000 	0.999645 	6.99935e-14 	0 	0
-4.55956 	348.432 	100000 	0.999645 	5.91032e-14 	0 	0
-4.54955 	348.432 	100000 	0.999645 	4.80973e-14 	0 	0
-4.53954 	348.432 	100000 	0.999645 	3.46377e-14 	0 	0
-4.52953 	348.432 	100000 	0.999645 	2.11782e-14 	0 	0
-4.51952 	348.432 	100000 	0.999645 	7.71861e-15 	0 	0
-4.50951 	348.432 	100000 	0.999645 	-5.74096e-15 	0 	0
-4.4995 	348.432 	100000 	0.999645 	-1.92005e-14 	0 	0
-4.48949 	348.432 	100000 	0.999645 	-3.26601e-14 	0 	0
-4.47948 	348.432 	100000 	0.999645 	-4.61197e-14 	0 	0
-4.46947 	348.432 	100000 	0.999645 	-5.95792e-14 	0 	0
-4.45946 	348.432 	100000 	0.999645 	-7.30388e-14 	0 	0
-4.44945 	348.432 	100000 	0.999645 	-8.62346e-14 	0 	0
-4.43944 	348.432 	100000 	0.999645 	-9.48974e-14 	0 	0
-4.42943 	348.432 	100000 	0.999645 	-1.0356e-13 	0 	0
-4.41942 	348.432 	100000 	0.999645 	-1.12223e-13 	0 	0
-4.40941 	348.432 	100000 	0.999645 	-1.20886e-13 	0 	0
-4.3994 	348.432 	100000 	0.999645 	-1.29549e-13 	0 	0
-4.38939 	348.432 	100000 	0.999645 	-1.38212e-13 	0 	0
-4.37938 	348.432 	100000 	0.999645 	-1.46875e-13 	0 	0
-4.36937 	348.432 	100000 	0.999645 	-1.55537e-13 	0 	0
-4.35936 	348.432 	100000 	0.999645 	-1.642e-13 	0 	0
-4.34935 	348.432 	100000 	0.999645 	-1.71782e-13 	0 	0
-4.33934 	348.432 	100000 	0.999645 	-1.63806e-13 	0 	0
-4.32933 	348.432 	100000 	0.999645 	-1.5583e-13 	0 	0
-4.31932 	348.432 	100000 	0.999645 	-1.47854e-13 	0 	0
-4.30931 	348.432 	100000 	0.999645 	-1.39878e-13 	0 	0
-4.2993 	348.432 	100000 	0.999645 	-1.31903e-13 	0 	0
-4.28929 	348.432 	100000 	0.999645 	-1.23927e-13 	0 	0
-4.27928 	348.432 	100000 	0.999645 	-1.15951e-13 	0 	0
-4.26927 	348.432 	100000 	0.999645 	-1.07975e-13 	0 	0
-4.25926 	348.432 	100000 	0.999645 	-9.99996e-14 	0 	0
-4.24925 	348.432 	100000 	0.999645 	-9.36265e-14 	0 	0
-4.23924 	348.432 	100000 	0.999645 	-1.0702e-13 	0 	0
-4.22923 	348.432 	100000 	0.999645 	-1.20413e-13 	0 	0
-4.21922 	348.432 	100000 	0.999645 	-1.33806e-13 	0 	0
-4.20921 	348.432 	100000 	0.999645 	-1.472e-13 	0 	0
-4.1992 	348.432 	100000 	0.999645 	-1.60593e-13 	0 	0
-4.18919 	348.432 	100000 	0.999645 	-1.73986e-13 	0 	0
-4.17918 	348.432 	100000 	0.999645 	-1.8738e-13 	0 	0
-4.16917 	348.432 	100000 	0.999645 	-2.00773e-13 	0 	0
-4.15916 	348.432 	100000 	0.999645 	-2.14166e-13 	0 	0
-4.14915 	348.432 	100000 	0.999645 	-2.29215e-13 	0 	0
-4.13914 	348.432 	100000 	0.999645 	-2.6209e-13 	0 	0
-4.12913 	348.432 	100000 	0.999645 	-2.94965e-13 	0 	0
-4.11912 	348.432 	100000 	0.999645 	-3.2784e-13 	0 	0
-4.10911 	348.432 	100000 	0.999645 	-3.60714e-13 	0 	0
-4.0991 	348.432 	100000 	0.999645 	-3.93589e-13 	0 	0
-4.08909 	348.432 	100000 	0.999645 	-4.26464e-13 	0 	0
-4.07908 	348.432 	100000 	0.999645 	-4.59339e-13 	0 	0
-4.06907 	348.432 	100000 	0.999645 	-4.92214e-13 	0 	0
-4.05906 	348.432 	100000 	0.999645 	-5.25088e-13 	0 	0
-4.04905 	348.432 	100000 	0.999645 	-5.56071e-13 	0 	0
-4.03904 	348.432 	100000 	0.999645 	-5.69033e-13 	0 	0
-4.02903 	348.432 	100000 	0.999645 	-5.81995e-13 	0 	0
-4.01902 	348.432 	100000 	0.999645 	-5.94957e-13 	0 	0
-4.00901 	348.432 	100000 	0.999645 	-6.07919e-13 	0 	0
-3.999 	348.432 	100000 	0.999645 	-6.20881e-13 	0 	0
-3.98899 	348.432 	100000 	0.999645 	-6.33843e-13 	0 	0
-3.97898 	348.432 	100000 	0.999645 	-6.46804e-13 	0 	0
-3.96897 	348.432 	100000 	0.999645 	-6.59766e-13 	0 	0
-3.95896 	348.432 	100000 	0.999645 	-6.72728e-13 	0 	0
-3.94895 	348.432 	100000 	0.999645 	-6.82955e-13 	0 	0
-3.93894 	348.432 	100000 	0.999645 	-6.69868e-13 	0 	0
-3.92893 	348.432 	100000 	0.999645 	-6.56781e-13 	0 	0
-3.91892 	348.432 	100000 	0.999645 	-6.43694e-13 	0 	0
-3.90891 	348.432 	100000 	0.999645 	-6.30607e-13 	0 	0
-3.8989 	348.432 	100000 	0.999645 	-6.1752e-13 	0 	0
-3.88889 	348.432 	100000 	0.999645 	-6.04433e-13 	0 	0
-3.87888 	348.432 	100000 	0.999645 	-5.91346e-13 	0 	0
-3.86887 	348.432 	100000 	0.999645 	-5.78259e-13 	0 	0
-3.85886 	348.432 	100000 	0.999645 	-5.65172e-13 	0 	0
-3.84885 	348.432 	100000 	0.999645 	-5.49912e-13 	0 	0
-3.83884 	348.432 	100000 	0.999645 	-5.17932e-13 	0 	0
-3.82883 	348.432 	100000 	0.999645 	-4.85952e-13 	0 	0
-3.81882 	348.432 	100000 	0.999645 	-4.53972e-13 	0 	0
-3.80881 	348.432 	100000 	0.999645 	-4.21992e-13 	0 	0
-3.7988 	348.432 	100000 	0.999645 	-3.90011e-13 	0 	0
-3.78879 	348.432 	100000 	0.999645 	-3.58031e-13 	0 	0
-3.77878 	348.432 	100000 	0.999645 	-3.26051e-13 	0 	0
-3.76877 	348.432 	100000 	0.999645 	-2.94071e-13 	0 	0
-3.75876 	348.432 	100000 	0.999645 	-2.62091e-13 	0 	0
-3.74875 	348.432 	100000 	0.999645 	-2.317e-13 	0 	0
-3.73874 	348.432 	100000 	0.999645 	-2.12437e-13 	0 	0
-3.72873 	348.432 	100000 	0.999645 	-1.93173e-13 	0 	0
-3.71872 	348.432 	100000 	0.999645 	-1.7391e-13 	0 	0
-3.70871 	348.432 	100000 	0.999645 	-1.54646e-13 	0 	0
-3.6987 	348.432 	100000 	0.999645 	-1.35383e-13 	0 	0
-3.68869 	348.432 	100000 	0.999645 	-1.1612e-13 	0 	0
-3.67868 	348.432 	100000 	0.999645 	-9.68562e-14 	0 	0
-3.66867 	348.432 	100000 	0.999645 	-7.75928e-14 	0 	0
-3.65866 	348.432 	100000 	0.999645 	-5.83294e-14 	0 	0
-3.64865 	348.432 	100000 	0.999645 	-4.22128e-14 	0 	0
-3.63864 	348.432 	100000 	0.999645 	-4.62593e-14 	0 	0
-3.62863 	348.432 	100000 	0.999645 	-5.03059e-14 	0 	0
-3.61862 	348.432 	100000 	0.999645 	-5.43524e-14 	0 	0
-3.60861 	348.432 	100000 	0.999645 	-5.8399e-14 	0 	0
-3.5986 	348.432 	100000 	0.999645 	-6.24455e-14 	0 	0
-3.58859 	348.432 	100000 	0.999645 	-6.64921e-14 	0 	0
-3.57858 	348.432 	100000 	0.999645 	-7.05386e-14 	0 	0
-3.56857 	348.432 	100000 	0.999645 	-7.45852e-14 	0 	0
-3.55856 	348.432 	100000 	0.999645 	-7.86317e-14 	0 	0
-3.54855 	348.432 	100000 	0.999645 	-8.14126e-14 	0 	0
-3.53854 	348.432 	100000 	0.999645 	-7.67303e-14 	0 	0
-3.52853 	348.432 	100000 	0.999645 	-7.2048e-14 	0 	0
-3.51852 	348.432 	100000 	0.999645 	-6.73657e-14 	0 	0
-3.50851 	348.432 	100000 	0.999645 	-6.26834e-14 	0 	0
-3.4985 	348.432 	100000 	0.999645 	-5.80011e-14 	0 	0
-3.48849 	348.432 	100000 	0.999645 	-5.33188e-14 	0 	0
-3.47848 	348.432 	100000 	0.999645 	-4.86365e-14 	0 	0
-3.46847 	348.432 	100000 	0.999645 	-4.39542e-14 	0 	0
-3.45846 	348.432 	100000 	0.999645 	-3.92719e-14 	0 	0
-3.44845 	348.432 	100000 	0.999645 	-3.5949e-14 	0 	0
-3.43844 	348.432 	100000 	0.999645 	-4.00367e-14 	0 	0
-3.42843 	348.432 	100000 	0.999645 	-4.41244e-14 	0 	0
-3.41842 	348.432 	100000 	0.999645 	-4.82121e-14 	0 	0
-3.40841 	348.432 	100000 	0.999645 	-5.22999e-14 	0 	0
-3.3984 	348.432 	100000 	0.999645 	-5.63876e-14 	0 	0
-3.38839 	348.432 	100000 	0.999645 	-6.04753e-14 	0 	0
-3.37838 	348.432 	100000 	0.999645 	-6.4563e-14 	0 	0
-3.36837 	348.432 	100000 	0.999645 	-6.86507e-14 	0 	0
-3.35836 	348.432 	100000 	0.999645 	-7.27385e-14 	0 	0
-3.34835 	348.432 	100000 	0.999645 	-7.4762e-14 	0 	0
-3.33834 	348.432 	100000 	0.999645 	-6.63397e-14 	0 	0
-3.32833 	348.432 	100000 	0.999645 	-5.79175e-14 	0 	0
-3.31832 	348.432 	100000 	0.999645 	-4.94952e-14 	0 	0
-3.30831 	348.432 	100000 	0.999645 	-4.10729e-14 	0 	0
-3.2983 	348.432 	100000 	0.999645 	-3.26506e-14 	0 	0
-3.28829 	348.432 	100000 	0.999645 	-2.42284e-14 	0 	0
-3.27828 	348.432 	100000 	0.999645 	-1.58061e-14 	0 	0
-3.26827 	348.432 	100000 	0.999645 	-7.38382e-15 	0 	0
-3.25826 	348.432 	100000 	0.999645 	1.03845e-15 	0 	0
-3.24825 	348.432 	100000 	0.999645 	9.41853e-15 	0 	0
-3.23824 	348.432 	100000 	0.999645 	1.75997e-14 	0 	0
-3.22823 	348.432 	100000 	0.999645 	2.57808e-14 	0 	0
-3.21822 	348.432 	100000 	0.999645 	3.3962e-14 	0 	0
-3.20821 	348.432 	100000 	0.999645 	4.21432e-14 	0 	0
-3.1982 	348.432 	100000 	0.999645 	5.03243e-14 	0 	0
-3.18819 	348.432 	100000 	0.999645 	5.85055e-14 	0 	0
-3.17818 	348.432 	100000 	0.999645 	6.66866e-14 	0 	0
-3.16817 	348.432 	100000 	0.999645 	7.48678e-14 	0 	0
-3.15816 	348.432 	100000 	0.999645 	8.3049e-14 	0 	0
-3.14815 	348.432 	100000 	0.999645 	8.8591e-14 	0 	0
-3.13814 	348.432 	100000 	0.999645 	8.25069e-14 	0 	0
-3.12813 	348.432 	100000 	0.999645 	7.64229e-14 	0 	0
-3.11812 	348.432 	100000 	0.999645 	7.03388e-14 	0 	0
-3.10811 	348.432 	100000 	0.999645 	6.42547e-14 	0 	0
-3.0981 	348.432 	100000 	0.999645 	5.81706e-14 	0 	0
-3.08809 	348.432 	100000 	0.999645 	5.20865e-14 	0 	0
-3.07808 	348.432 	100000 	0.999645 	4.60024e-14 	0 	0
-3.06807 	348.432 	100000 	0.999645 	3.99183e-14 	0 	0
-3.05806 	348.432 	100000 	0.999645 	3.38342e-14 	0 	0
-3.04805 	348.432 	100000 	0.999645 	2.84755e-14 	0 	0
-3.03804 	348.432 	100000 	0.999645 	2.61112e-14 	0 	0
-3.02803 	348.432 	100000 	0.999645 	2.37469e-14 	0 	0
-3.01802 	348.432 	100000 	0.999645 	2.13826e-14 	0 	0
-3.00801 	348.432 	100000 	0.999645 	1.90183e-14 	0 	0
-2.998 	348.432 	100000 	0.999645 	1.6654e-14 	0 	0
-2.98799 	348.432 	100000 	0.999645 	1.42897e-14 	0 	0
-2.97798 	348.432 	100000 	0.999645 	1.19254e-14 	0 	0
-2.96797 	348.432 	100000 	0.999645 	9.56109e-15 	0 	0
-2.95796 	348.432 	100000 	0.999645 	7.1968e-15 	0 	0
-2.94795 	348.432 	100000 	0.999645 	4.61007e-15 	0 	0
-2.93794 	348.432 	100000 	0.999645 	1.16073e-15 	0 	0
-2.92793 	348.432 	100000 	0.999645 	-2.28861e-15 	0 	0
-2.91792 	348.432 	100000 	0.999645 	-5.73795e-15 	0 	0
-2.90791 	348.432 	100000 	0.999645 	-9.18728e-15 	0 	0
-2.8979 	348.432 	100000 	0.999645 	-1.26366e-14 	0 	0
-2.88789 	348.432 	100000 	0.999645 	-1.6086e-14 	0 	0
-2.87788 	348.432 	100000 	0.999645 	-1.95353e-14 	0 	0
-2.86787 	348.432 	100000 	0.999645 	-2.29846e-14 	0 	0
-2.85786 	348.432 	100000 	0.999645 	-2.6434e-14 	0 	0
-2.84785 	348.432 	100000 	0.999645 	-2.71258e-14 	0 	0
-2.83784 	348.432 	100000 	0.999645 	-1.77495e-14 	0 	0
-2.82783 	348.432 	100000 	0.999645 	-8.37312e-15 	0 	0
-2.81782 	348.432 	100000 	0.999645 	1.00322e-15 	0 	0
-2.80781 	348.432 	100000 	0.999645 	1.03796e-14 	0 	0
-2.7978 	348.432 	100000 	0.999645 	1.97559e-14 	0 	0
-2.78779 	348.432 	100000 	0.999645 	2.91322e-14 	0 	0
-2.77778 	348.432 	100000 	0.999645 	3.85086e-14 	0 	0
-2.76777 	348.432 	100000 	0.999645 	4.78849e-14 	0 	0
-2.75776 	348.432 	100000 	0.999645 	5.72612e-14 	0 	0
-2.74775 	348.432 	100000 	0.999645 	6.73293e-14 	0 	0
-2.73774 	348.432 	100000 	0.999645 	7.97802e-14 	0 	0
-2.72773 	348.432 	100000 	0.999645 	9.22311e-14 	0 	0
-2.71772 	348.432 	100000 	0.999645 	1.04682e-13 	0 	0
-2.70771 	348.432 	100000 	0.999645 	1.17133e-13 	0 	0
-2.6977 	348.432 	100000 	0.999645 	1.29584e-13 	0 	0
-2.68769 	348.432 	100000 	0.999645 	1.42035e-13 	0 	0
-2.67768 	348.432 	100000 	0.999645 	1.54485e-13 	0 	0
-2.66767 	348.432 	100000 	0.999645 	1.66936e-13 	0 	0
-2.65766 	348.432 	100000 	0.999645 	1.79387e-13 	0 	0
-2.64765 	348.432 	100000 	0.999645 	1.88166e-13 	0 	0
-2.63764 	348.432 	100000 	0.999645 	1.84991e-13 	0 	0
-2.62763 	348.432 	100000 	0.999645 	1.81816e-13 	0 	0
-2.61762 	348.432 	100000 	0.999645 	1.78642e-13 	0 	0
-2.60761 	348.432 	100000 	0.999645 	1.75467e-13 	0 	0
-2.5976 	348.432 	100000 	0.999645 	1.72292e-13 	0 	0
-2.58759 	348.432 	100000 	0.999645 	1.69117e-13 	0 	0
-2.57758 	348.432 	100000 	0.999645 	1.65943e-13 	0 	0
-2.56757 	348.432 	100000 	0.999645 	1.62768e-13 	0 	0
-2.55756 	348.432 	100000 	0.999645 	1.59593e-13 	0 	0
-2.54755 	348.432 	100000 	0.999645 	4.58409e-13 	0 	0
-2.53754 	348.432 	100000 	0.999645 	1.68785e-12 	0 	0
-2.52753 	348.432 	100000 	0.999645 	2.91729e-12 	0 	0
-2.51752 	348.432 	100000 	0.999645 	4.14673e-12 	0 	0
-2.50751 	348.432 	100000 	0.999645 	5.37617e-12 	0 	0
-2.4975 	348.432 	100000 	0.999645 	6.60561e-12 	0 	0
-2.48749 	348.432 	100000 	0.999645 	7.83505e-12 	0 	0
-2.47748 	348.432 	100000 	0.999645 	9.06449e-12 	0 	0
-2.46747 	348.432 	100000 	0.999645 	1.02939e-11 	0 	0
-2.45746 	348.432 	100000 	0.999645 	1.15234e-11 	0 	0
-2.44745 	348.432 	100000 	0.999645 	5.42147e-09 	0 	0
-2.43744 	348.432 	100000 	0.999645 	2.66333e-08 	0 	0
-2.42743 	348.432 	100000 	0.999645 	4.78452e-08 	0 	0
-2.41742 	348.432 	100000 	0.999645 	6.90571e-08 	0 	0
-2.40741 	348.432 	100000 	0.999645 	9.02689e-08 	0 	0
-2.3974 	348.432 	100000 	0.999645 	1.11481e-07 	0 	0
-2.38739 	348.432 	100000 	0.999645 	1.32693e-07 	0 	0
-2.37738 	348.432 	100000 	0.999645 	1.53905e-07 	0 	0
-2.36737 	348.432 	100000 	0.999645 	1.75116e-07 	0 	0
-2.35736 	348.432 	100000 	0.999645 	1.96328e-07 	0 	0
-2.34735 	348.432 	100000 	0.999645 	7.47401e-06 	0 	0
-2.33734 	348.432 	100000 	0.999645 	3.48781e-05 	0 	0
-2.32733 	348.432 	100000 	0.999645 	6.22822e-05 	0 	0
-2.31732 	348.432 	100000 	0.999645 	8.96863e-05 	0 	0
-2.30731 	348.432 	100000 	0.999645 	0.00011709 	0 	0
-2.2973 	348.432 	99999.9 	0.999645 	0.000144495 	0 	0
-2.28729 	348.432 	99999.9 	0.999645 	0.000171899 	0 	0
-2.27728 	348.432 	99999.9 	0.999645 	0.000199303 	0 	0
-2.26727 	348.432 	99999.9 	0.999645 	0.000226707 	0 	0
-2.25726 	348.432 	99999.9 	0.999645 	0.000254111 	0 	0
-2.24725 	348.432 	99999.5 	0.999642 	0.00128984 	0 	0
-2.23724 	348.43 	99998.1 	0.999632 	0.0049839 	0 	0
-2.22723 	348.429 	99996.8 	0.999622 	0.00867796 	0 	0
-2.21722 	348.427 	99995.4 	0.999613 	0.012372 	0 	0
-2.20721 	348.426 	99994 	0.999603 	0.0160661 	0 	0
-2.1972 	348.425 	99992.6 	0.999593 	0.0197601 	0 	0
-2.18719 	348.423 	99991.2 	0.999583 	0.0234542 	0 	0
-2.17718 	348.422 	99989.9 	0.999573 	0.0271482 	0 	0
-2.16717 	348.42 	99988.5 	0.999563 	0.0308423 	0 	0
-2.15716 	348.419 	99987.1 	0.999553 	0.0345363 	0 	0
-2.14715 	348.409 	99977.5 	0.999485 	0.0601456 	0 	0
-2.13714 	348.38 	99947.4 	0.999269 	0.140735 	0 	0
-2.12713 	348.35 	99917.3 	0.999054 	0.221324 	0 	0
-2.11712 	348.32 	99887.2 	0.998838 	0.301914 	0 	0
-2.10711 	348.29 	99857 	0.998623 	0.382503 	0 	0
-2.0971 	348.26 	99826.9 	0.998408 	0.463092 	0 	0
-2.08709 	348.23 	99796.8 	0.998192 	0.543682 	0 	0
-2.07708 	348.2 	99766.7 	0.997977 	0.624271 	0 	0
-2.06707 	348.17 	99736.6 	0.997761 	0.70486 	0 	0
-2.05706 	348.14 	99706.4 	0.997546 	0.78545 	0 	0
-2.04705 	348.07 	99636.2 	0.997043 	0.974327 	0 	0
-2.03704 	347.904 	99470.2 	0.995852 	1.42199 	0 	0
-2.02703 	347.738 	99304.2 	0.994661 	1.86966 	0 	0
-2.01702 	347.571 	99138.2 	0.993471 	2.31733 	0 	0
-2.00701 	347.405 	98972.2 	0.99228 	2.765 	0 	0
-1.997 	347.239 	98806.1 	0.991089 	3.21266 	0 	0
-1.98699 	347.073 	98640.1 	0.989899 	3.66033 	0 	0
-1.97698 	346.907 	98474.1 	0.988708 	4.108 	0 	0
-1.96697 	346.741 	98308.1 	0.987517 	4.55566 	0 	0
-1.95696 	346.574 	98142.1 	0.986327 	5.00333 	0 	0
-1.94695 	346.347 	97917.1 	0.984708 	5.61669 	0 	0
-1.93694 	345.98 	97557.8 	0.982113 	6.60759 	0 	0
-1.92693 	345.612 	97198.5 	0.979518 	7.5985 	0 	0
-1.91692 	345.245 	96839.1 	0.976923 	8.5894 	0 	0
-1.90691 	344.877 	96479.8 	0.974328 	9.58031 	0 	0
-1.8969 	344.51 	96120.5 	0.971734 	10.5712 	0 	0
-1.88689 	344.143 	95761.2 	0.969139 	11.5621 	0 	0
-1.87688 	343.775 	95401.9 	0.966544 	12.553 	0 	0
-1.86687 	343.408 	95042.6 	0.963949 	13.5439 	0 	0
-1.85686 	343.041 	94683.2 	0.961354 	14.5348 	0 	0
-1.84685 	342.635 	94291.4 	0.958512 	15.6309 	0 	0
-1.83684 	342.146 	93828.8 	0.955132 	16.9558 	0 	0
-1.82683 	341.657 	93366.2 	0.951752 	18.2808 	0 	0
-1.81682 	341.168 	92903.6 	0.948372 	19.6057 	0 	0
-1.80681 	340.679 	92441 	0.944992 	20.9306 	0 	0
-1.7968 	340.19 	91978.4 	0.941612 	22.2555 	0 	0
-1.78679 	339.701 	91515.8 	0.938232 	23.5804 	0 	0
-1.77678 	339.212 	91053.2 	0.934852 	24.9053 	0 	0
-1.76677 	338.723 	90590.6 	0.931472 	26.2302 	0 	0
-1.75676 	338.234 	90128 	0.928092 	27.5551 	0 	0
-1.74675 	337.732 	89659.3 	0.924651 	28.9183 	0 	0
-1.73674 	337.204 	89178.1 	0.921083 	30.3609 	0 	0
-1.72673 	336.676 	88696.9 	0.917515 	31.8036 	0 	0
-1.71672 	336.147 	88215.7 	0.913947 	33.2463 	0 	0
-1.70671 	335.619 	87734.5 	0.910379 	34.6889 	0 	0
-1.6967 	335.091 	87253.4 	0.906811 	36.1316 	0 	0
-1.68669 	334.562 	86772.2 	0.903242 	37.5742 	0 	0
-1.67668 	334.034 	86291 	0.899674 	39.0169 	0 	0
-1.66667 	333.506 	85809.8 	0.896106 	40.4596 	0 	0
-1.65666 	332.977 	85328.6 	0.892538 	41.9022 	0 	0
-1.64665 	332.446 	84851.3 	0.88898 	43.3566 	0 	0
-1.63664 	331.909 	84381.6 	0.885441 	44.8343 	0 	0
-1.62663 	331.373 	83912 	0.881903 	46.3119 	0 	0
-1.61662 	330.836 	83442.3 	0.878364 	47.7896 	0 	0
-1.60661 	330.299 	82972.7 	0.874825 	49.2672 	0 	0
-1.5966 	329.763 	82503 	0.871287 	50.7449 	0 	0
-1.58659 	329.226 	82033.4 	0.867748 	52.2226 	0 	0
-1.57658 	328.689 	81563.7 	0.86421 	53.7002 	0 	0
-1.56657 	328.152 	81094.1 	0.860671 	55.1779 	0 	0
-1.55656 	327.616 	80624.4 	0.857133 	56.6555 	0 	0
-1.54655 	327.079 	80161 	0.853622 	58.1383 	0 	0
-1.53654 	326.541 	79709.4 	0.850163 	59.6307 	0 	0
-1.52653 	326.003 	79257.8 	0.846704 	61.1232 	0 	0
-1.51652 	325.466 	78806.3 	0.843246 	62.6156 	0 	0
-1.50651 	324.928 	78354.7 	0.839787 	64.108 	0 	0
-1.4965 	324.39 	77903.1 	0.836328 	65.6005 	0 	0
-1.48649 	323.853 	77451.5 	0.83287 	67.0929 	0 	0
-1.47648 	323.315 	76999.9 	0.829411 	68.5853 	0 	0
-1.46647 	322.777 	76548.4 	0.825952 	70.0777 	0 	0
-1.45646 	322.24 	76096.8 	0.822494 	71.5702 	0 	0
-1.44645 	321.702 	75651.9 	0.819067 	73.0663 	0 	0
-1.43644 	321.166 	75219.4 	0.815698 	74.5691 	0 	0
-1.42643 	320.629 	74786.8 	0.812329 	76.0719 	0 	0
-1.41642 	320.092 	74354.3 	0.80896 	77.5746 	0 	0
-1.40641 	319.556 	73921.7 	0.805592 	79.0774 	0 	0
-1.3964 	319.019 	73489.1 	0.802223 	80.5802 	0 	0
-1.38639 	318.482 	73056.6 	0.798854 	82.083 	0 	0
-1.37638 	317.945 	72624 	0.795485 	83.5858 	0 	0
-1.36637 	317.409 	72191.4 	0.792116 	85.0886 	0 	0
-1.35636 	316.872 	71758.9 	0.788747 	86.5913 	0 	0
-1.34635 	316.336 	71333.2 	0.785412 	88.0974 	0 	0
-1.33634 	315.8 	70919.6 	0.782136 	89.609 	0 	0
-1.32633 	315.265 	70506 	0.778859 	91.1207 	0 	0
-1.31632 	314.729 	70092.4 	0.775583 	92.6323 	0 	0
-1.30631 	314.194 	69678.7 	0.772307 	94.144 	0 	0
-1.2963 	313.658 	69265.1 	0.76903 	95.6556 	0 	0
-1.28629 	313.123 	68851.5 	0.765754 	97.1673 	0 	0
-1.27628 	312.588 	68437.9 	0.762477 	98.6789 	0 	0
-1.26627 	312.052 	68024.2 	0.759201 	100.191 	0 	0
-1.25626 	311.517 	67610.6 	0.755925 	101.702 	0 	0
-1.24625 	310.982 	67204 	0.752683 	103.217 	0 	0
-1.23624 	310.448 	66809 	0.7495 	104.737 	0 	0
-1.22623 	309.915 	66413.9 	0.746317 	106.256 	0 	0
-1.21622 	309.381 	66018.9 	0.743133 	107.776 	0 	0
-1.20621 	308.848 	65623.9 	0.73995 	109.296 	0 	0
-1.1962 	308.314 	65228.9 	0.736767 	110.815 	0 	0
-1.18619 	307.781 	64833.9 	0.733584 	112.335 	0 	0
-1.17618 	307.247 	64438.9 	0.7304 	113.855 	0 	0
-1.16617 	306.714 	64043.8 	0.727217 	115.375 	0 	0
-1.15616 	306.18 	63648.8 	0.724034 	116.894 	0 	0
-1.14615 	305.647 	63260.8 	0.720886 	118.417 	0 	0
-1.13614 	305.116 	62883.9 	0.717795 	119.945 	0 	0
-1.12613 	304.584 	62507 	0.714705 	121.472 	0 	0
-1.11612 	304.052 	62130.1 	0.711614 	123 	0 	0
-1.10611 	303.52 	61753.2 	0.708523 	124.527 	0 	0
-1.0961 	302.989 	61376.3 	0.705433 	126.055 	0 	0
-1.08609 	302.457 	60999.3 	0.702342 	127.582 	0 	0
-1.07608 	301.925 	60622.4 	0.699251 	129.11 	0 	0
-1.06607 	301.393 	60245.5 	0.696161 	130.637 	0 	0
-1.05606 	300.862 	59868.6 	0.69307 	132.165 	0 	0
-1.04605 	300.331 	59498.6 	0.690015 	133.696 	0 	0
-1.03604 	299.801 	59139.2 	0.687015 	135.231 	0 	0
-1.02603 	299.271 	58779.7 	0.684015 	136.767 	0 	0
-1.01602 	298.741 	58420.3 	0.681015 	138.303 	0 	0
-1.00601 	298.211 	58060.9 	0.678015 	139.839 	0 	0
-0.995996 	297.682 	57701.4 	0.675015 	141.374 	0 	0
-0.985986 	297.152 	57342 	0.672015 	142.91 	0 	0
-0.975976 	296.622 	56982.5 	0.669015 	144.446 	0 	0
-0.965966 	296.092 	56623.1 	0.666015 	145.982 	0 	0
-0.955956 	295.562 	56263.7 	0.663015 	147.517 	0 	0
-0.945946 	295.033 	55911 	0.660051 	149.057 	0 	0
-0.935936 	294.505 	55568.4 	0.657139 	150.601 	0 	0
-0.925926 	293.977 	55225.7 	0.654228 	152.146 	0 	0
-0.915916 	293.449 	54883.1 	0.651316 	153.69 	0 	0
-0.905906 	292.921 	54540.5 	0.648405 	155.235 	0 	0
-0.895896 	292.392 	54197.8 	0.645493 	156.779 	0 	0
-0.885886 	291.864 	53855.2 	0.642582 	158.324 	0 	0
-0.875876 	291.336 	53512.5 	0.63967 	159.868 	0 	0
-0.865866 	290.808 	53169.9 	0.636759 	161.413 	0 	0
-0.855856 	290.28 	52827.2 	0.633847 	162.957 	0 	0
-0.845846 	289.752 	52491.3 	0.630971 	164.506 	0 	0
-0.835836 	289.226 	52164.7 	0.628145 	166.06 	0 	0
-0.825826 	288.699 	51838.1 	0.62532 	167.615 	0 	0
-0.815816 	288.173 	51511.6 	0.622494 	169.169 	0 	0
-0.805806 	287.646 	51185 	0.619668 	170.723 	0 	0
-0.795796 	287.119 	50858.4 	0.616842 	172.278 	0 	0
-0.785786 	286.593 	50531.9 	0.614016 	173.832 	0 	0
-0.775776 	286.066 	50205.3 	0.611191 	175.387 	0 	0
-0.765766 	285.539 	49878.7 	0.608365 	176.941 	0 	0
-0.755756 	285.013 	49552.2 	0.605539 	178.495 	0 	0
-0.745746 	284.487 	49232.2 	0.602748 	180.054 	0 	0
-0.735736 	283.961 	48921.1 	0.600006 	181.619 	0 	0
-0.725726 	283.436 	48610 	0.597264 	183.184 	0 	0
-0.715716 	282.911 	48298.8 	0.594521 	184.749 	0 	0
-0.705706 	282.385 	47987.7 	0.591779 	186.314 	0 	0
-0.695696 	281.86 	47676.6 	0.589036 	187.879 	0 	0
-0.685686 	281.335 	47365.5 	0.586294 	189.445 	0 	0
-0.675676 	280.809 	47054.4 	0.583551 	191.01 	0 	0
-0.665666 	280.284 	46743.3 	0.580809 	192.575 	0 	0
-0.655656 	279.759 	46432.2 	0.578066 	194.14 	0 	0
-0.645646 	279.234 	46127.6 	0.57536 	195.709 	0 	0
-0.635636 	278.71 	45831.4 	0.5727 	197.285 	0 	0
-0.625626 	278.186 	45535.3 	0.57004 	198.861 	0 	0
-0.615616 	277.662 	45239.1 	0.56738 	200.437 	0 	0
-0.605606 	277.138 	44942.9 	0.56472 	202.013 	0 	0
-0.595596 	276.614 	44646.8 	0.56206 	203.588 	0 	0
-0.585586 	276.091 	44350.6 	0.5594 	205.164 	0 	0
-0.575576 	275.567 	44054.5 	0.55674 	206.74 	0 	0
-0.565566 	275.043 	43758.3 	0.55408 	208.316 	0 	0
-0.555556 	274.519 	43462.2 	0.55142 	209.891 	0 	0
-0.545546 	273.996 	43172.6 	0.548798 	211.471 	0 	0
-0.535536 	273.474 	42891.3 	0.546222 	213.056 	0 	0
-0.525526 	272.952 	42610 	0.543647 	214.642 	0 	0
-0.515516 	272.43 	42328.6 	0.541071 	216.227 	0 	0
-0.505506 	271.908 	42047.3 	0.538496 	217.812 	0 	0
-0.495495 	271.386 	41766 	0.53592 	219.397 	0 	0
-0.485485 	270.864 	41484.7 	0.533344 	220.982 	0 	0
-0.475475 	270.342 	41203.4 	0.530769 	222.567 	0 	0
-0.465465 	269.82 	40922 	0.528193 	224.152 	0 	0
-0.455455 	269.298 	40640.7 	0.525618 	225.737 	0 	0
-0.445445 	268.778 	40366.3 	0.523084 	227.324 	0 	0
-0.435435 	268.26 	40100.2 	0.5206 	228.912 	0 	0
-0.425425 	267.742 	39834 	0.518115 	230.5 	0 	0
-0.415415 	267.224 	39567.9 	0.515631 	232.089 	0 	0
-0.405405 	266.706 	39301.7 	0.513147 	233.677 	0 	0
-0.395395 	266.188 	39035.6 	0.510663 	235.266 	0 	0
-0.385385 	265.67 	38769.4 	0.508179 	236.854 	0 	0
-0.375375 	265.152 	38503.3 	0.505694 	238.442 	0 	0
-0.365365 	264.634 	38237.1 	0.50321 	240.031 	0 	0
-0.355355 	264.116 	37971 	0.500726 	241.619 	0 	0
-0.345345 	263.603 	37712.8 	0.498295 	243.202 	0 	0
-0.335335 	263.094 	37463.9 	0.495924 	244.78 	0 	0
-0.325325 	262.586 	37214.9 	0.493554 	246.357 	0 	0
-0.315315 	262.078 	36966 	0.491184 	247.934 	0 	0
-0.305305 	261.57 	36717 	0.488813 	249.511 	0 	0
-0.295295 	261.062 	36468 	0.486443 	251.088 	0 	0
-0.285285 	260.553 	36219.1 	0.484073 	252.665 	0 	0
-0.275275 	260.045 	35970.1 	0.481702 	254.243 	0 	0
-0.265265 	259.537 	35721.2 	0.479332 	255.82 	0 	0
-0.255255 	259.029 	35472.2 	0.476961 	257.397 	0 	0
-0.245245 	258.532 	35233.7 	0.47467 	258.946 	0 	0
-0.235235 	258.047 	35006.8 	0.472465 	260.465 	0 	0
-0.225225 	257.562 	34779.8 	0.470261 	261.983 	0 	0
-0.215215 	257.077 	34552.9 	0.468056 	263.502 	0 	0
-0.205205 	256.592 	34325.9 	0.465851 	265.02 	0 	0
-0.195195 	256.107 	34099 	0.463647 	266.538 	0 	0
-0.185185 	255.622 	33872 	0.461442 	268.057 	0 	0
-0.175175 	255.137 	33645.1 	0.459238 	269.575 	0 	0
-0.165165 	254.652 	33418.1 	0.457033 	271.094 	0 	0
-0.155155 	254.167 	33191.2 	0.454828 	272.612 	0 	0
-0.145145 	253.71 	32983.6 	0.452804 	274.04 	0 	0
-0.135135 	253.283 	32796.7 	0.450972 	275.372 	0 	0
-0.125125 	252.856 	32609.7 	0.44914 	276.704 	0 	0
-0.115115 	252.428 	32422.7 	0.447307 	278.036 	0 	0
-0.105105 	252.001 	32235.8 	0.445475 	279.369 	0 	0
-0.0950951 	251.574 	32048.8 	0.443643 	280.701 	0 	0
-0.0850851 	251.147 	31861.8 	0.44181 	282.033 	0 	0
-0.0750751 	250.72 	31674.9 	0.439978 	283.365 	0 	0
-0.0650651 	250.293 	31487.9 	0.438146 	284.697 	0 	0
-0.0550551 	249.866 	31300.9 	0.436313 	286.029 	0 	0
-0.045045 	249.528 	31150.7 	0.434816 	287.113 	0 	0
-0.035035 	249.281 	31037.8 	0.433661 	287.943 	0 	0
-0.025025 	249.035 	30925 	0.432506 	288.773 	0 	0
-0.015015 	248.788 	30812.2 	0.431351 	289.603 	0 	0
-0.00500501 	248.542 	30699.4 	0.430196 	290.433 	0 	0
0.00500501 	248.295 	30586.6 	0.42904 	291.264 	0 	0
0.015015 	248.049 	30473.8 	0.427885 	292.094 	0 	0
0.025025 	247.802 	30361 	0.42673 	292.924 	0 	0
0.035035 	247.556 	30248.2 	0.425575 	293.754 	0 	0
0.045045 	247.309 	30135.3 	0.42442 	294.584 	0 	0
0.0550551 	247.167 	30071.2 	0.423765 	295.059 	0 	0
0.0650651 	247.129 	30054.8 	0.4236 	295.185 	0 	0
0.0750751 	247.09 	30038.5 	0.423435 	295.311 	0 	0
0.0850851 	247.051 	30022.1 	0.42327 	295.437 	0 	0
0.0950951 	247.012 	30005.7 	0.423105 	295.563 	0 	0
0.105105 	246.974 	29989.3 	0.42294 	295.689 	0 	0
0.115115 	246.935 	29972.9 	0.422776 	295.815 	0 	0
0.125125 	246.896 	29956.5 	0.422611 	295.942 	0 	0
0.135135 	246.858 	29940.1 	0.422446 	296.068 	0 	0
0.145145 	246.819 	29923.7 	0.422281 	296.194 	0 	0
0.155155 	246.858 	29941.9 	0.422468 	296.061 	0 	0
0.165165 	246.972 	29992.4 	0.422986 	295.683 	0 	0
0.175175 	247.085 	30043 	0.423504 	295.306 	0 	0
0.185185 	247.198 	30093.6 	0.424021 	294.929 	0 	0
0.195195 	247.311 	30144.2 	0.424539 	294.551 	0 	0
0.205205 	247.424 	30194.8 	0.425057 	294.174 	0 	0
0.215215 	247.538 	30245.4 	0.425575 	293.796 	0 	0
0.225225 	247.651 	30296 	0.426093 	293.419 	0 	0
0.235235 	247.764 	30346.6 	0.426611 	293.042 	0 	0
0.245245 	247.877 	30397.2 	0.427129 	292.664 	0 	0
0.255255 	247.922 	30418.3 	0.427351 	292.507 	0 	0
0.265265 	247.904 	30412.8 	0.427304 	292.548 	0 	0
0.275275 	247.886 	30407.3 	0.427257 	292.589 	0 	0
0.285285 	247.868 	30401.8 	0.427211 	292.63 	0 	0
0.295295 	247.85 	30396.3 	0.427164 	292.672 	0 	0
0.305305 	247.833 	30390.8 	0.427117 	292.713 	0 	0
0.315315 	247.815 	30385.3 	0.427071 	292.754 	0 	0
0.325325 	247.797 	30379.8 	0.427024 	292.795 	0 	0
0.335335 	247.779 	30374.4 	0.426977 	292.837 	0 	0
0.345345 	247.761 	30368.9 	0.426931 	292.878 	0 	0
0.355355 	247.738 	30363.3 	0.426892 	292.919 	0 	0
0.365365 	247.711 	30357.7 	0.426861 	292.959 	0 	0
0.375375 	247.684 	30352.1 	0.426829 	292.999 	0 	0
0.385385 	247.657 	30346.6 	0.426798 	293.04 	0 	0
0.395395 	247.63 	30341 	0.426766 	293.08 	0 	0
0.405405 	247.602 	30335.4 	0.426734 	293.12 	0 	0
0.415415 	247.575 	30329.8 	0.426703 	293.161 	0 	0
0.425425 	247.548 	30324.2 	0.426671 	293.201 	0 	0
0.435435 	247.521 	30318.6 	0.42664 	293.241 	0 	0
0.445445 	247.493 	30313 	0.426608 	293.282 	0 	0
0.455455 	247.469 	30309.9 	0.426607 	293.305 	0 	0
0.465465 	247.446 	30308.8 	0.42663 	293.315 	0 	0
0.475475 	247.423 	30307.6 	0.426654 	293.324 	0 	0
0.485485 	247.4 	30306.5 	0.426677 	293.333 	0 	0
0.495495 	247.378 	30305.4 	0.4267 	293.343 	0 	0
0.505506 	247.355 	30304.2 	0.426724 	293.352 	0 	0
0.515516 	247.332 	30303.1 	0.426747 	293.362 	0 	0
0.525526 	247.31 	30302 	0.426771 	293.371 	0 	0
0.535536 	247.287 	30300.8 	0.426794 	293.38 	0 	0
0.545546 	247.264 	30299.7 	0.426818 	293.39 	0 	0
0.555556 	247.247 	30298.2 	0.426826 	293.397 	0 	0
0.565566 	247.234 	30296.4 	0.426822 	293.403 	0 	0
0.575576 	247.222 	30294.5 	0.426818 	293.409 	0 	0
0.585586 	247.209 	30292.7 	0.426814 	293.414 	0 	0
0.595596 	247.197 	30290.9 	0.42681 	293.42 	0 	0