# Solver information
# Time        	U_solver      	Ux_initial    	Ux_final      	Ux_iters      	Uy_initial    	Uy_final      	Uy_iters      	Uz_initial    	Uz_final      	Uz_iters      	U_converged   	p_solver      	p_initial     	p_final       	p_iters       	p_converged   
1             	smoothSolver	1.000000e+00	5.884520e-02	4	1.000000e+00	7.842060e-02	4	1.000000e+00	6.246720e-02	6	false	GAMG	1.000000e+00	9.964060e-03	9	true
2             	smoothSolver	2.701930e-01	1.349360e-02	3	3.377190e-01	1.370960e-02	3	3.148580e-01	1.393040e-02	3	false	GAMG	3.667550e-01	2.222690e-03	6	true
3             	smoothSolver	7.031660e-02	3.118390e-03	3	1.062990e-01	4.452090e-03	3	1.078950e-01	5.016040e-03	3	false	GAMG	2.913690e-01	2.459050e-03	5	true
4             	smoothSolver	3.664410e-02	1.551560e-03	3	5.343770e-02	2.051270e-03	3	5.907830e-02	2.308740e-03	3	false	GAMG	1.850230e-01	9.942680e-04	5	true
5             	smoothSolver	1.935490e-02	9.292980e-04	3	2.683460e-02	1.076920e-03	3	2.823470e-02	1.253420e-03	3	false	GAMG	1.942450e-01	1.532230e-03	4	true
6             	smoothSolver	1.296900e-02	6.319250e-04	3	1.740130e-02	6.829380e-04	3	1.789150e-02	8.210500e-04	3	false	GAMG	1.865400e-01	1.759130e-03	4	true
7             	smoothSolver	1.090000e-02	5.310190e-04	3	1.431410e-02	5.597460e-04	3	1.472130e-02	6.705370e-04	3	false	GAMG	1.782650e-01	1.374590e-03	4	true
8             	smoothSolver	9.039010e-03	4.488830e-04	3	1.226490e-02	4.846810e-04	3	1.241510e-02	5.654950e-04	3	false	GAMG	1.491730e-01	1.155140e-03	4	true
9             	smoothSolver	7.935780e-03	3.964490e-04	3	1.088740e-02	4.317730e-04	3	1.089890e-02	4.935360e-04	3	false	GAMG	1.140540e-01	1.041110e-03	4	true
10            	smoothSolver	7.094610e-03	3.569630e-04	3	9.911260e-03	3.921620e-04	3	9.781760e-03	4.411250e-04	3	false	GAMG	8.669330e-02	7.536650e-04	4	true
11            	smoothSolver	6.649920e-03	3.349330e-04	3	9.365200e-03	3.675340e-04	3	9.206080e-03	4.121610e-04	3	false	GAMG	6.691650e-02	6.294840e-04	4	true
12            	smoothSolver	6.312600e-03	3.168000e-04	3	9.040840e-03	3.545020e-04	3	8.814100e-03	3.911880e-04	3	false	GAMG	5.458910e-02	3.589680e-04	5	true
13            	smoothSolver	6.052290e-03	3.020920e-04	3	8.802810e-03	3.442450e-04	3	8.509990e-03	3.760810e-04	3	false	GAMG	4.627670e-02	4.184680e-04	4	true
14            	smoothSolver	5.885870e-03	2.913860e-04	3	8.586430e-03	3.353120e-04	3	8.254560e-03	3.616730e-04	3	false	GAMG	4.107890e-02	2.778720e-04	5	true
15            	smoothSolver	5.801720e-03	2.845440e-04	3	8.386520e-03	3.302310e-04	3	8.021340e-03	3.504680e-04	3	false	GAMG	3.893180e-02	2.652760e-04	5	true
16            	smoothSolver	5.660230e-03	2.754750e-04	3	8.188770e-03	3.241750e-04	3	7.810970e-03	3.420590e-04	3	false	GAMG	3.679380e-02	2.387330e-04	5	true
17            	smoothSolver	5.499850e-03	2.668880e-04	3	8.004460e-03	3.189730e-04	3	7.604010e-03	3.349150e-04	3	false	GAMG	3.436680e-02	2.194120e-04	5	true
18            	smoothSolver	5.347600e-03	2.590760e-04	3	7.829030e-03	3.132230e-04	3	7.439290e-03	3.296010e-04	3	false	GAMG	3.146550e-02	1.904050e-04	5	true
19            	smoothSolver	5.200120e-03	2.507600e-04	3	7.672170e-03	3.071470e-04	3	7.293430e-03	3.206040e-04	3	false	GAMG	3.186690e-02	1.963100e-04	5	true
20            	smoothSolver	5.088710e-03	2.439410e-04	3	7.543340e-03	3.030160e-04	3	7.186330e-03	3.135970e-04	3	false	GAMG	3.062980e-02	3.039800e-04	4	true
21            	smoothSolver	4.965490e-03	2.358060e-04	3	7.418800e-03	2.972870e-04	3	7.059920e-03	3.047990e-04	3	false	GAMG	2.943190e-02	2.019830e-04	5	true
22            	smoothSolver	4.866270e-03	2.300610e-04	3	7.295440e-03	2.914780e-04	3	6.960090e-03	2.965110e-04	3	false	GAMG	2.750200e-02	1.712550e-04	5	true
23            	smoothSolver	4.791980e-03	2.247350e-04	3	7.197570e-03	2.874900e-04	3	6.876170e-03	2.890850e-04	3	false	GAMG	2.844940e-02	1.856710e-04	5	true
24            	smoothSolver	4.700980e-03	2.190840e-04	3	7.085420e-03	2.825690e-04	3	6.773790e-03	2.795290e-04	3	false	GAMG	2.734990e-02	1.856830e-04	5	true
25            	smoothSolver	4.642820e-03	2.154310e-04	3	7.005540e-03	2.772240e-04	3	6.707360e-03	2.727330e-04	3	false	GAMG	2.846010e-02	2.213370e-04	5	true
26            	smoothSolver	4.585500e-03	2.126170e-04	3	6.926010e-03	2.734190e-04	3	6.638840e-03	2.649780e-04	3	false	GAMG	2.884560e-02	2.260600e-04	5	true
27            	smoothSolver	4.524820e-03	2.093690e-04	3	6.845630e-03	2.690330e-04	3	6.570460e-03	2.609390e-04	3	false	GAMG	2.957300e-02	2.312360e-04	5	true
28            	smoothSolver	4.457790e-03	2.069570e-04	3	6.768710e-03	2.653440e-04	3	6.523100e-03	6.473730e-04	2	false	GAMG	2.832620e-02	2.018050e-04	5	true
29            	smoothSolver	4.399270e-03	2.040860e-04	3	6.703840e-03	2.616060e-04	3	6.502590e-03	2.620640e-04	3	false	GAMG	3.044120e-02	2.243920e-04	5	true
30            	smoothSolver	4.339510e-03	2.012670e-04	3	6.634680e-03	2.583800e-04	3	6.442750e-03	2.557630e-04	3	false	GAMG	2.840820e-02	1.928210e-04	5	true
31            	smoothSolver	4.284940e-03	1.980960e-04	3	6.578200e-03	6.563500e-04	2	6.402530e-03	6.324680e-04	2	false	GAMG	3.071450e-02	2.035470e-04	5	true
32            	smoothSolver	4.232870e-03	1.953590e-04	3	6.532190e-03	2.616230e-04	3	6.377640e-03	2.540540e-04	3	false	GAMG	2.948720e-02	1.830250e-04	5	true
33            	smoothSolver	4.174440e-03	1.926790e-04	3	6.472590e-03	2.576710e-04	3	6.322300e-03	6.248200e-04	2	false	GAMG	3.037910e-02	2.068930e-04	5	true
34            	smoothSolver	4.129210e-03	1.900860e-04	3	6.421500e-03	2.529100e-04	3	6.309790e-03	2.501240e-04	3	false	GAMG	2.976840e-02	1.890490e-04	5	true
35            	smoothSolver	4.085330e-03	1.875720e-04	3	6.372480e-03	6.367670e-04	2	6.266190e-03	6.202270e-04	2	false	GAMG	3.056520e-02	2.045810e-04	5	true
36            	smoothSolver	4.053150e-03	1.854230e-04	3	6.347560e-03	2.530750e-04	3	6.259890e-03	2.465860e-04	3	false	GAMG	3.039680e-02	3.015700e-04	4	true
37            	smoothSolver	4.014660e-03	1.837910e-04	3	6.305290e-03	2.473110e-04	3	6.218260e-03	6.097070e-04	2	false	GAMG	3.023450e-02	2.250080e-04	5	true
38            	smoothSolver	3.989130e-03	1.823150e-04	3	6.281850e-03	6.250050e-04	2	6.213730e-03	6.188630e-04	2	false	GAMG	3.077340e-02	2.889250e-04	4	true
39            	smoothSolver	3.950610e-03	1.799020e-04	3	6.259980e-03	2.471570e-04	3	6.177280e-03	2.438900e-04	3	false	GAMG	3.029310e-02	1.897880e-04	5	true
40            	smoothSolver	3.919920e-03	1.789940e-04	3	6.221510e-03	2.424300e-04	3	6.143340e-03	6.066210e-04	2	false	GAMG	3.076330e-02	2.800130e-04	4	true
41            	smoothSolver	3.883200e-03	1.768530e-04	3	6.197130e-03	6.126750e-04	2	6.125130e-03	6.106140e-04	2	false	GAMG	3.008450e-02	1.892220e-04	5	true
42            	smoothSolver	3.853770e-03	1.756920e-04	3	6.188230e-03	2.438860e-04	3	6.104920e-03	2.413170e-04	3	false	GAMG	3.071200e-02	2.677650e-04	4	true
43            	smoothSolver	3.822510e-03	1.736830e-04	3	6.173000e-03	2.398760e-04	3	6.065830e-03	5.941830e-04	2	false	GAMG	3.004160e-02	2.994190e-04	4	true
44            	smoothSolver	3.801720e-03	1.720700e-04	3	6.156030e-03	6.118130e-04	2	6.053840e-03	5.985770e-04	2	false	GAMG	3.107290e-02	2.918000e-04	4	true
45            	smoothSolver	3.780550e-03	1.714800e-04	3	6.169160e-03	2.432400e-04	3	6.039490e-03	2.376410e-04	3	false	GAMG	3.059630e-02	1.886140e-04	5	true
46            	smoothSolver	3.748070e-03	1.688230e-04	3	6.155180e-03	2.403880e-04	3	6.009260e-03	5.840910e-04	2	false	GAMG	3.120000e-02	2.837460e-04	4	true
47            	smoothSolver	3.719640e-03	1.673100e-04	3	6.151550e-03	6.090730e-04	2	5.995500e-03	5.879690e-04	2	false	GAMG	3.055570e-02	1.877180e-04	5	true
48            	smoothSolver	3.691840e-03	1.642410e-04	3	6.147390e-03	2.414820e-04	3	5.972650e-03	5.868310e-04	2	false	GAMG	3.222180e-02	2.986170e-04	4	true
49            	smoothSolver	3.651380e-03	1.613690e-04	3	6.138600e-03	6.123000e-04	2	5.953740e-03	5.904590e-04	2	false	GAMG	3.033520e-02	3.008340e-04	4	true
50            	smoothSolver	3.630370e-03	1.602670e-04	3	6.152630e-03	2.442680e-04	3	5.932550e-03	5.925280e-04	2	false	GAMG	3.126960e-02	2.962590e-04	4	true
51            	smoothSolver	3.602340e-03	1.584600e-04	3	6.140900e-03	2.380170e-04	3	5.914390e-03	5.906890e-04	2	false	GAMG	3.054670e-02	2.908370e-04	4	true
52            	smoothSolver	3.574170e-03	1.560550e-04	3	6.139590e-03	6.005340e-04	2	5.898080e-03	5.855040e-04	2	false	GAMG	3.065890e-02	2.798220e-04	4	true
53            	smoothSolver	3.545780e-03	1.544130e-04	3	6.140050e-03	2.388290e-04	3	5.862540e-03	5.807570e-04	2	false	GAMG	3.041450e-02	2.662990e-04	4	true
54            	smoothSolver	3.516110e-03	1.534360e-04	3	6.135160e-03	6.087300e-04	2	5.852350e-03	5.771950e-04	2	false	GAMG	3.040140e-02	2.504960e-04	4	true
55            	smoothSolver	3.491320e-03	1.516960e-04	3	6.138150e-03	2.414480e-04	3	5.822270e-03	5.740430e-04	2	false	GAMG	3.052740e-02	2.471720e-04	4	true
56            	smoothSolver	3.459130e-03	1.499340e-04	3	6.129200e-03	2.374030e-04	3	5.807920e-03	5.730610e-04	2	false	GAMG	3.104240e-02	2.289420e-04	4	true
57            	smoothSolver	3.433590e-03	1.488020e-04	3	6.126800e-03	6.053580e-04	2	5.798100e-03	5.728010e-04	2	false	GAMG	3.043680e-02	2.184450e-04	4	true
58            	smoothSolver	3.405850e-03	1.475410e-04	3	6.135450e-03	2.390570e-04	3	5.779930e-03	5.727440e-04	2	false	GAMG	3.044570e-02	2.308870e-04	4	true
59            	smoothSolver	3.380770e-03	1.459660e-04	3	6.133210e-03	6.074620e-04	2	5.779460e-03	5.712600e-04	2	false	GAMG	3.078190e-02	2.329210e-04	4	true
60            	smoothSolver	3.350830e-03	1.449010e-04	3	6.133720e-03	2.392070e-04	3	5.769660e-03	5.705480e-04	2	false	GAMG	3.093760e-02	2.558350e-04	4	true
61            	smoothSolver	3.328850e-03	1.438930e-04	3	6.130610e-03	6.066490e-04	2	5.761320e-03	5.681090e-04	2	false	GAMG	3.104310e-02	2.539510e-04	4	true
62            	smoothSolver	3.300010e-03	1.428380e-04	3	6.127500e-03	2.390120e-04	3	5.754990e-03	5.643380e-04	2	false	GAMG	3.063490e-02	2.641730e-04	4	true
63            	smoothSolver	3.277500e-03	1.424100e-04	3	6.109750e-03	6.032400e-04	2	5.750190e-03	5.617580e-04	2	false	GAMG	3.074360e-02	2.614810e-04	4	true
64            	smoothSolver	3.255100e-03	1.420480e-04	3	6.102810e-03	2.386300e-04	3	5.744930e-03	5.574480e-04	2	false	GAMG	3.099520e-02	2.858390e-04	4	true
65            	smoothSolver	3.230560e-03	1.412090e-04	3	6.088030e-03	6.021320e-04	2	5.741390e-03	5.560000e-04	2	false	GAMG	3.063720e-02	2.766290e-04	4	true
66            	smoothSolver	3.211330e-03	1.401190e-04	3	6.088370e-03	2.394150e-04	3	5.735650e-03	5.535800e-04	2	false	GAMG	3.061090e-02	2.830610e-04	4	true
67            	smoothSolver	3.190660e-03	1.384880e-04	3	6.072590e-03	6.024570e-04	2	5.729540e-03	5.517050e-04	2	false	GAMG	2.958030e-02	2.740710e-04	4	true
68            	smoothSolver	3.172670e-03	1.377380e-04	3	6.067150e-03	2.397640e-04	3	5.712710e-03	5.518280e-04	2	false	GAMG	3.016240e-02	2.731160e-04	4	true
69            	smoothSolver	3.159770e-03	1.367820e-04	3	6.054390e-03	6.030610e-04	2	5.703440e-03	5.500960e-04	2	false	GAMG	2.946070e-02	2.546340e-04	4	true
70            	smoothSolver	3.141020e-03	1.372000e-04	3	6.046510e-03	2.397120e-04	3	5.682120e-03	5.529740e-04	2	false	GAMG	2.982910e-02	2.496920e-04	4	true
71            	smoothSolver	3.132570e-03	1.368370e-04	3	6.028860e-03	6.018770e-04	2	5.683800e-03	5.554050e-04	2	false	GAMG	2.981240e-02	2.438640e-04	4	true
72            	smoothSolver	3.118120e-03	1.361150e-04	3	6.024250e-03	2.387910e-04	3	5.660690e-03	5.549490e-04	2	false	GAMG	2.961030e-02	2.390360e-04	4	true
73            	smoothSolver	3.108620e-03	1.351570e-04	3	6.004500e-03	5.952440e-04	2	5.654190e-03	5.560810e-04	2	false	GAMG	2.968180e-02	2.378540e-04	4	true
74            	smoothSolver	3.092190e-03	1.345540e-04	3	5.998860e-03	2.371640e-04	3	5.629910e-03	5.533140e-04	2	false	GAMG	2.919700e-02	2.232440e-04	4	true
75            	smoothSolver	3.075920e-03	1.333460e-04	3	5.979330e-03	5.922380e-04	2	5.615110e-03	5.496470e-04	2	false	GAMG	2.912070e-02	2.178470e-04	4	true
76            	smoothSolver	3.063130e-03	1.331460e-04	3	5.975180e-03	2.354140e-04	3	5.596730e-03	5.433870e-04	2	false	GAMG	2.877400e-02	2.097730e-04	4	true
77            	smoothSolver	3.048350e-03	1.326150e-04	3	5.956360e-03	5.867620e-04	2	5.583900e-03	5.407470e-04	2	false	GAMG	2.789140e-02	2.112070e-04	4	true
78            	smoothSolver	3.030850e-03	1.321760e-04	3	5.949820e-03	2.326700e-04	3	5.556090e-03	5.351420e-04	2	false	GAMG	2.804360e-02	2.202200e-04	4	true
79            	smoothSolver	3.016430e-03	1.313310e-04	3	5.935670e-03	5.827990e-04	2	5.542740e-03	5.325530e-04	2	false	GAMG	2.789830e-02	2.144100e-04	4	true
80            	smoothSolver	3.000920e-03	1.307590e-04	3	5.930740e-03	5.917330e-04	2	5.521500e-03	5.305120e-04	2	false	GAMG	2.741010e-02	2.223670e-04	4	true
81            	smoothSolver	2.983640e-03	1.291450e-04	3	5.918760e-03	2.332130e-04	3	5.500880e-03	5.263840e-04	2	false	GAMG	2.786340e-02	2.328300e-04	4	true
82            	smoothSolver	2.970760e-03	1.277290e-04	3	5.894080e-03	5.830630e-04	2	5.485910e-03	5.229760e-04	2	false	GAMG	2.747350e-02	2.233550e-04	4	true
83            	smoothSolver	2.957060e-03	1.264130e-04	3	5.881820e-03	5.860490e-04	2	5.464810e-03	5.217640e-04	2	false	GAMG	2.715120e-02	2.246890e-04	4	true
84            	smoothSolver	2.939970e-03	1.253870e-04	3	5.863890e-03	2.302780e-04	3	5.440310e-03	5.233760e-04	2	false	GAMG	2.788160e-02	2.182100e-04	4	true
85            	smoothSolver	2.925380e-03	1.243820e-04	3	5.839900e-03	5.746730e-04	2	5.424310e-03	5.235100e-04	2	false	GAMG	2.755960e-02	2.133990e-04	4	true
86            	smoothSolver	2.909840e-03	1.235220e-04	3	5.823480e-03	5.781710e-04	2	5.396000e-03	5.225370e-04	2	false	GAMG	2.760700e-02	2.079680e-04	4	true
87            	smoothSolver	2.893760e-03	1.225960e-04	3	5.807850e-03	5.803690e-04	2	5.363330e-03	5.200700e-04	2	false	GAMG	2.733660e-02	2.110910e-04	4	true
88            	smoothSolver	2.878150e-03	1.213660e-04	3	5.782800e-03	2.255830e-04	3	5.338340e-03	5.177180e-04	2	false	GAMG	2.796100e-02	2.055470e-04	4	true
89            	smoothSolver	2.861880e-03	1.200060e-04	3	5.748920e-03	5.621490e-04	2	5.319960e-03	5.139100e-04	2	false	GAMG	2.775540e-02	2.246790e-04	4	true
90            	smoothSolver	2.844890e-03	1.193080e-04	3	5.728180e-03	5.661500e-04	2	5.282470e-03	5.109570e-04	2	false	GAMG	2.751640e-02	2.176760e-04	4	true
91            	smoothSolver	2.825670e-03	1.177630e-04	3	5.707880e-03	5.669000e-04	2	5.256260e-03	5.074820e-04	2	false	GAMG	2.776350e-02	2.274520e-04	4	true
92            	smoothSolver	2.809820e-03	1.164410e-04	3	5.680330e-03	2.201920e-04	3	5.225540e-03	5.039140e-04	2	false	GAMG	2.846610e-02	2.241390e-04	4	true
93            	smoothSolver	2.794080e-03	1.157460e-04	3	5.650840e-03	5.504660e-04	2	5.213000e-03	5.035540e-04	2	false	GAMG	2.817840e-02	2.158990e-04	4	true
94            	smoothSolver	2.775010e-03	1.141900e-04	3	5.633910e-03	5.505790e-04	2	5.181820e-03	4.996750e-04	2	false	GAMG	2.791980e-02	2.151400e-04	4	true
95            	smoothSolver	2.757620e-03	1.132040e-04	3	5.626180e-03	5.538480e-04	2	5.151140e-03	4.976040e-04	2	false	GAMG	2.820050e-02	2.329340e-04	4	true
96            	smoothSolver	2.744090e-03	1.118620e-04	3	5.611960e-03	5.564850e-04	2	5.130910e-03	4.948360e-04	2	false	GAMG	2.879160e-02	2.467660e-04	4	true
97            	smoothSolver	2.728650e-03	1.107540e-04	3	5.601050e-03	5.590540e-04	2	5.110340e-03	4.934600e-04	2	false	GAMG	2.905710e-02	2.416240e-04	4	true
98            	smoothSolver	2.713330e-03	1.099640e-04	3	5.588890e-03	2.162990e-04	3	5.092770e-03	4.920830e-04	2	false	GAMG	2.988780e-02	2.439590e-04	4	true
99            	smoothSolver	2.697440e-03	1.092330e-04	3	5.564480e-03	5.386340e-04	2	5.079520e-03	4.913780e-04	2	false	GAMG	2.986480e-02	2.361840e-04	4	true
100           	smoothSolver	2.678570e-03	1.082960e-04	3	5.563580e-03	5.374580e-04	2	5.049750e-03	4.882970e-04	2	false	GAMG	2.929870e-02	2.366030e-04	4	true
101           	smoothSolver	2.663180e-03	1.071350e-04	3	5.562030e-03	5.380160e-04	2	5.019870e-03	4.860300e-04	2	false	GAMG	2.945460e-02	2.538680e-04	4	true
102           	smoothSolver	2.640870e-03	1.061660e-04	3	5.550080e-03	5.398160e-04	2	4.999210e-03	4.839330e-04	2	false	GAMG	2.943620e-02	2.415660e-04	4	true
103           	smoothSolver	2.630240e-03	1.050830e-04	3	5.556700e-03	5.413260e-04	2	4.982860e-03	4.798480e-04	2	false	GAMG	2.984840e-02	2.388710e-04	4	true
104           	smoothSolver	2.613860e-03	1.045960e-04	3	5.541900e-03	5.405730e-04	2	4.961950e-03	4.749980e-04	2	false	GAMG	2.981990e-02	2.428090e-04	4	true
105           	smoothSolver	2.600720e-03	1.040050e-04	3	5.542020e-03	5.425300e-04	2	4.946160e-03	4.731180e-04	2	false	GAMG	2.979340e-02	2.422730e-04	4	true
106           	smoothSolver	2.587430e-03	1.030750e-04	3	5.531120e-03	5.403750e-04	2	4.925860e-03	4.716780e-04	2	false	GAMG	2.956850e-02	2.410310e-04	4	true
107           	smoothSolver	2.579780e-03	1.027410e-04	3	5.533810e-03	5.416610e-04	2	4.912350e-03	4.725460e-04	2	false	GAMG	3.015100e-02	2.463220e-04	4	true
108           	smoothSolver	2.567890e-03	1.024060e-04	3	5.526060e-03	5.407440e-04	2	4.903140e-03	4.713040e-04	2	false	GAMG	3.059280e-02	2.501070e-04	4	true
109           	smoothSolver	2.560170e-03	1.021100e-04	3	5.521940e-03	5.404630e-04	2	4.894830e-03	4.710380e-04	2	false	GAMG	2.996590e-02	2.511820e-04	4	true
110           	smoothSolver	2.551540e-03	1.021020e-04	3	5.521060e-03	5.396860e-04	2	4.890460e-03	4.692350e-04	2	false	GAMG	3.016540e-02	2.573520e-04	4	true
111           	smoothSolver	2.543820e-03	1.014520e-04	3	5.513270e-03	5.346720e-04	2	4.892150e-03	4.677120e-04	2	false	GAMG	2.922840e-02	2.481990e-04	4	true
112           	smoothSolver	2.539650e-03	1.014040e-04	3	5.508700e-03	5.322760e-04	2	4.899680e-03	4.699990e-04	2	false	GAMG	3.013700e-02	2.498140e-04	4	true
113           	smoothSolver	2.535530e-03	1.008020e-04	3	5.499640e-03	5.266910e-04	2	4.904810e-03	4.704170e-04	2	false	GAMG	2.895840e-02	2.300090e-04	4	true
114           	smoothSolver	2.525960e-03	1.004050e-04	3	5.490500e-03	5.245150e-04	2	4.905220e-03	4.707060e-04	2	false	GAMG	2.890920e-02	2.327480e-04	4	true
115           	smoothSolver	2.522190e-03	2.516600e-04	2	5.479110e-03	5.228600e-04	2	4.917980e-03	4.721810e-04	2	false	GAMG	3.061540e-02	2.422610e-04	4	true
116           	smoothSolver	2.518000e-03	1.027490e-04	3	5.470000e-03	5.238090e-04	2	4.913910e-03	4.721020e-04	2	false	GAMG	2.973670e-02	2.437920e-04	4	true
117           	smoothSolver	2.509160e-03	1.011110e-04	3	5.453850e-03	5.212670e-04	2	4.925060e-03	4.708520e-04	2	false	GAMG	2.952680e-02	2.423810e-04	4	true
118           	smoothSolver	2.498840e-03	9.946820e-05	3	5.446040e-03	5.225190e-04	2	4.934140e-03	4.694910e-04	2	false	GAMG	2.936760e-02	2.448470e-04	4	true
119           	smoothSolver	2.495730e-03	2.485310e-04	2	5.435480e-03	5.189440e-04	2	4.949780e-03	4.696440e-04	2	false	GAMG	3.116100e-02	2.486970e-04	4	true
120           	smoothSolver	2.493000e-03	1.009860e-04	3	5.430460e-03	5.161630e-04	2	4.953130e-03	4.689280e-04	2	false	GAMG	3.063740e-02	2.470800e-04	4	true
121           	smoothSolver	2.485630e-03	9.886160e-05	3	5.417800e-03	5.116410e-04	2	4.964390e-03	4.684950e-04	2	false	GAMG	3.030790e-02	2.522730e-04	4	true
122           	smoothSolver	2.474030e-03	2.473910e-04	2	5.414010e-03	5.104700e-04	2	4.968770e-03	4.697400e-04	2	false	GAMG	3.159380e-02	2.606780e-04	4	true
123           	smoothSolver	2.471610e-03	9.913530e-05	3	5.407620e-03	5.063850e-04	2	4.978080e-03	4.676890e-04	2	false	GAMG	3.104860e-02	2.669620e-04	4	true
124           	smoothSolver	2.461900e-03	2.456280e-04	2	5.409830e-03	5.055600e-04	2	4.988620e-03	4.693930e-04	2	false	GAMG	3.205830e-02	2.770790e-04	4	true
125           	smoothSolver	2.456640e-03	9.787290e-05	3	5.400850e-03	5.007300e-04	2	4.994500e-03	4.674930e-04	2	false	GAMG	3.238420e-02	2.711960e-04	4	true
126           	smoothSolver	2.445490e-03	2.426740e-04	2	5.403370e-03	5.035930e-04	2	5.004920e-03	4.682450e-04	2	false	GAMG	3.302190e-02	2.823850e-04	4	true
127           	smoothSolver	2.440820e-03	9.643730e-05	3	5.396750e-03	4.992740e-04	2	5.015290e-03	4.660100e-04	2	false	GAMG	3.309690e-02	2.779000e-04	4	true
128           	smoothSolver	2.429430e-03	2.398120e-04	2	5.402910e-03	5.010100e-04	2	5.021710e-03	4.670200e-04	2	false	GAMG	3.317480e-02	2.800640e-04	4	true
129           	smoothSolver	2.424760e-03	9.574230e-05	3	5.393670e-03	4.980830e-04	2	5.027010e-03	4.660000e-04	2	false	GAMG	3.306800e-02	2.814450e-04	4	true
130           	smoothSolver	2.421550e-03	2.392160e-04	2	5.397090e-03	4.985260e-04	2	5.038330e-03	4.679140e-04	2	false	GAMG	3.348980e-02	2.823440e-04	4	true
131           	smoothSolver	2.417440e-03	9.454450e-05	3	5.386260e-03	4.934650e-04	2	5.036490e-03	4.659820e-04	2	false	GAMG	3.344410e-02	2.684230e-04	4	true
132           	smoothSolver	2.410730e-03	2.368500e-04	2	5.382440e-03	4.933780e-04	2	5.051360e-03	4.672350e-04	2	false	GAMG	3.367980e-02	2.720750e-04	4	true
133           	smoothSolver	2.411320e-03	2.409640e-04	2	5.369490e-03	4.916120e-04	2	5.055750e-03	4.642250e-04	2	false	GAMG	3.299070e-02	2.863440e-04	4	true
134           	smoothSolver	2.406650e-03	9.519030e-05	3	5.364360e-03	4.917830e-04	2	5.056330e-03	4.626260e-04	2	false	GAMG	3.422740e-02	2.969520e-04	4	true
135           	smoothSolver	2.401940e-03	2.368180e-04	2	5.365360e-03	4.902670e-04	2	5.068890e-03	4.621360e-04	2	false	GAMG	3.370200e-02	3.003870e-04	4	true
136           	smoothSolver	2.400150e-03	2.394220e-04	2	5.359210e-03	4.878670e-04	2	5.068150e-03	4.611080e-04	2	false	GAMG	3.310000e-02	3.031880e-04	4	true
137           	smoothSolver	2.401720e-03	9.497080e-05	3	5.356720e-03	4.859980e-04	2	5.073820e-03	4.620830e-04	2	false	GAMG	3.434160e-02	2.824930e-04	4	true
138           	smoothSolver	2.401090e-03	2.362100e-04	2	5.365290e-03	4.853890e-04	2	5.083840e-03	4.639790e-04	2	false	GAMG	3.399270e-02	2.836170e-04	4	true
139           	smoothSolver	2.407130e-03	2.395240e-04	2	5.361150e-03	4.822140e-04	2	5.092010e-03	4.643880e-04	2	false	GAMG	3.395030e-02	2.812990e-04	4	true
140           	smoothSolver	2.409120e-03	9.477760e-05	3	5.360200e-03	4.822090e-04	2	5.096060e-03	4.657470e-04	2	false	GAMG	3.460920e-02	2.675160e-04	4	true
141           	smoothSolver	2.413420e-03	2.368980e-04	2	5.366470e-03	4.821070e-04	2	5.109420e-03	4.658030e-04	2	false	GAMG	3.401810e-02	2.587640e-04	4	true
142           	smoothSolver	2.419920e-03	2.395320e-04	2	5.371410e-03	4.830450e-04	2	5.116130e-03	4.654570e-04	2	false	GAMG	3.383780e-02	2.593320e-04	4	true
143           	smoothSolver	2.427630e-03	2.424200e-04	2	5.370140e-03	4.823710e-04	2	5.125750e-03	4.626610e-04	2	false	GAMG	3.320740e-02	2.490250e-04	4	true
144           	smoothSolver	2.430620e-03	9.507350e-05	3	5.366930e-03	4.831320e-04	2	5.128200e-03	4.610140e-04	2	false	GAMG	3.563680e-02	2.592170e-04	4	true
145           	smoothSolver	2.433200e-03	2.368340e-04	2	5.370640e-03	4.838390e-04	2	5.144380e-03	4.603200e-04	2	false	GAMG	3.398430e-02	2.569020e-04	4	true
146           	smoothSolver	2.438310e-03	2.389860e-04	2	5.371390e-03	4.842200e-04	2	5.147630e-03	4.584400e-04	2	false	GAMG	3.370400e-02	2.472380e-04	4	true
147           	smoothSolver	2.443040e-03	2.410240e-04	2	5.371640e-03	4.826300e-04	2	5.155660e-03	4.583380e-04	2	false	GAMG	3.350130e-02	2.474510e-04	4	true
148           	smoothSolver	2.449830e-03	2.424210e-04	2	5.379920e-03	4.836340e-04	2	5.165240e-03	4.597960e-04	2	false	GAMG	3.376010e-02	2.463210e-04	4	true
149           	smoothSolver	2.446640e-03	2.429940e-04	2	5.375130e-03	4.822610e-04	2	5.177790e-03	4.614390e-04	2	false	GAMG	3.298640e-02	2.558620e-04	4	true
150           	smoothSolver	2.446570e-03	2.414600e-04	2	5.384850e-03	4.817080e-04	2	5.182090e-03	4.629630e-04	2	false	GAMG	3.288180e-02	2.495790e-04	4	true
151           	smoothSolver	2.442800e-03	2.420910e-04	2	5.386360e-03	4.819890e-04	2	5.199600e-03	4.647310e-04	2	false	GAMG	3.208880e-02	2.404350e-04	4	true
152           	smoothSolver	2.441110e-03	2.411040e-04	2	5.397860e-03	4.801490e-04	2	5.210790e-03	4.637060e-04	2	false	GAMG	3.266240e-02	2.389370e-04	4	true
153           	smoothSolver	2.439950e-03	2.406330e-04	2	5.405430e-03	4.796910e-04	2	5.216290e-03	4.632380e-04	2	false	GAMG	3.227690e-02	2.344470e-04	4	true
154           	smoothSolver	2.435380e-03	2.399540e-04	2	5.411920e-03	4.774010e-04	2	5.225210e-03	4.617350e-04	2	false	GAMG	3.243870e-02	2.379390e-04	4	true
155           	smoothSolver	2.432170e-03	2.406350e-04	2	5.419810e-03	4.790600e-04	2	5.234180e-03	4.624630e-04	2	false	GAMG	3.200870e-02	2.398270e-04	4	true
156           	smoothSolver	2.433230e-03	2.406420e-04	2	5.429140e-03	4.791240e-04	2	5.236020e-03	4.593720e-04	2	false	GAMG	3.232930e-02	2.290060e-04	4	true
157           	smoothSolver	2.426510e-03	2.407250e-04	2	5.435670e-03	4.802370e-04	2	5.240740e-03	4.597320e-04	2	false	GAMG	3.207340e-02	2.314910e-04	4	true
158           	smoothSolver	2.425600e-03	2.406130e-04	2	5.442300e-03	4.795700e-04	2	5.241910e-03	4.568320e-04	2	false	GAMG	3.153600e-02	2.283100e-04	4	true
159           	smoothSolver	2.418260e-03	2.396450e-04	2	5.445000e-03	4.816800e-04	2	5.236480e-03	4.554850e-04	2	false	GAMG	3.151490e-02	2.330290e-04	4	true
160           	smoothSolver	2.419330e-03	2.385880e-04	2	5.449850e-03	4.799830e-04	2	5.236420e-03	4.529410e-04	2	false	GAMG	3.193330e-02	2.329720e-04	4	true
161           	smoothSolver	2.408320e-03	2.375400e-04	2	5.444090e-03	4.808460e-04	2	5.227530e-03	4.522720e-04	2	false	GAMG	3.101420e-02	2.271110e-04	4	true
162           	smoothSolver	2.408190e-03	2.363390e-04	2	5.450590e-03	4.810750e-04	2	5.220110e-03	4.507600e-04	2	false	GAMG	3.168420e-02	2.332740e-04	4	true
163           	smoothSolver	2.401090e-03	2.359920e-04	2	5.449220e-03	4.823590e-04	2	5.212500e-03	4.514980e-04	2	false	GAMG	3.064280e-02	2.262680e-04	4	true
164           	smoothSolver	2.398270e-03	2.340150e-04	2	5.453310e-03	4.826240e-04	2	5.202010e-03	4.513580e-04	2	false	GAMG	3.146930e-02	2.390930e-04	4	true
165           	smoothSolver	2.390310e-03	2.337150e-04	2	5.452360e-03	4.826160e-04	2	5.189430e-03	4.517100e-04	2	false	GAMG	3.075710e-02	2.412670e-04	4	true
166           	smoothSolver	2.390980e-03	2.330420e-04	2	5.456290e-03	4.822510e-04	2	5.188570e-03	4.510620e-04	2	false	GAMG	3.142060e-02	2.438770e-04	4	true
167           	smoothSolver	2.377240e-03	2.322160e-04	2	5.446550e-03	4.816750e-04	2	5.177730e-03	4.501360e-04	2	false	GAMG	3.005330e-02	2.353520e-04	4	true
168           	smoothSolver	2.374730e-03	2.316400e-04	2	5.446990e-03	4.791000e-04	2	5.168000e-03	4.489500e-04	2	false	GAMG	3.073030e-02	2.339340e-04	4	true
169           	smoothSolver	2.370210e-03	2.308330e-04	2	5.443270e-03	4.779340e-04	2	5.160910e-03	4.476360e-04	2	false	GAMG	3.030700e-02	2.321260e-04	4	true
170           	smoothSolver	2.370500e-03	2.304590e-04	2	5.443050e-03	4.753580e-04	2	5.147630e-03	4.450670e-04	2	false	GAMG	3.066790e-02	2.357630e-04	4	true
171           	smoothSolver	2.363370e-03	2.305370e-04	2	5.435560e-03	4.756390e-04	2	5.142490e-03	4.463030e-04	2	false	GAMG	3.077850e-02	2.525030e-04	4	true
172           	smoothSolver	2.358100e-03	2.288760e-04	2	5.430440e-03	4.720990e-04	2	5.126330e-03	4.435760e-04	2	false	GAMG	3.085670e-02	2.526890e-04	4	true
173           	smoothSolver	2.344900e-03	2.284110e-04	2	5.418420e-03	4.729710e-04	2	5.113880e-03	4.435080e-04	2	false	GAMG	3.056130e-02	2.491610e-04	4	true
174           	smoothSolver	2.336610e-03	2.262600e-04	2	5.406450e-03	4.685720e-04	2	5.098710e-03	4.396220e-04	2	false	GAMG	3.043820e-02	2.478770e-04	4	true
175           	smoothSolver	2.328210e-03	2.255550e-04	2	5.398770e-03	4.697050e-04	2	5.086800e-03	4.398510e-04	2	false	GAMG	3.036750e-02	2.535510e-04	4	true
176           	smoothSolver	2.319120e-03	2.238130e-04	2	5.386030e-03	4.674050e-04	2	5.070000e-03	4.373500e-04	2	false	GAMG	2.978930e-02	2.471650e-04	4	true
177           	smoothSolver	2.310610e-03	2.232320e-04	2	5.379740e-03	4.671210e-04	2	5.055890e-03	4.373590e-04	2	false	GAMG	3.011440e-02	2.528740e-04	4	true
178           	smoothSolver	2.292330e-03	2.211050e-04	2	5.359570e-03	4.633710e-04	2	5.030570e-03	4.341640e-04	2	false	GAMG	2.954860e-02	2.396070e-04	4	true
179           	smoothSolver	2.289080e-03	2.200370e-04	2	5.351540e-03	4.616050e-04	2	5.020210e-03	4.327370e-04	2	false	GAMG	3.025590e-02	2.421250e-04	4	true
180           	smoothSolver	2.275730e-03	2.174710e-04	2	5.325420e-03	4.573820e-04	2	5.002410e-03	4.307670e-04	2	false	GAMG	2.969310e-02	2.362200e-04	4	true
181           	smoothSolver	2.269990e-03	2.182300e-04	2	5.311650e-03	4.584800e-04	2	4.989030e-03	4.329780e-04	2	false	GAMG	3.028000e-02	2.346500e-04	4	true
182           	smoothSolver	2.261500e-03	2.172710e-04	2	5.291830e-03	4.566080e-04	2	4.974140e-03	4.308020e-04	2	false	GAMG	2.996640e-02	2.179490e-04	4	true
183           	smoothSolver	2.252470e-03	2.180950e-04	2	5.269060e-03	4.577800e-04	2	4.960030e-03	4.313800e-04	2	false	GAMG	2.993210e-02	2.132870e-04	4	true
184           	smoothSolver	2.248630e-03	2.173450e-04	2	5.249240e-03	4.552720e-04	2	4.943600e-03	4.284510e-04	2	false	GAMG	3.035830e-02	2.139230e-04	4	true
185           	smoothSolver	2.243280e-03	2.190970e-04	2	5.232520e-03	4.559260e-04	2	4.936130e-03	4.295350e-04	2	false	GAMG	3.082930e-02	2.223750e-04	4	true
186           	smoothSolver	2.240140e-03	2.172490e-04	2	5.213100e-03	4.530270e-04	2	4.924000e-03	4.275970e-04	2	false	GAMG	3.082810e-02	2.192920e-04	4	true
187           	smoothSolver	2.236750e-03	2.177680e-04	2	5.198100e-03	4.527800e-04	2	4.919440e-03	4.284800e-04	2	false	GAMG	3.138870e-02	2.188090e-04	4	true
188           	smoothSolver	2.223960e-03	2.158450e-04	2	5.171980e-03	4.499290e-04	2	4.901400e-03	4.284360e-04	2	false	GAMG	3.119630e-02	2.195030e-04	4	true
189           	smoothSolver	2.221960e-03	2.171130e-04	2	5.161260e-03	4.476730e-04	2	4.899040e-03	4.278650e-04	2	false	GAMG	3.127650e-02	2.215950e-04	4	true
190           	smoothSolver	2.209120e-03	2.152780e-04	2	5.127920e-03	4.452580e-04	2	4.884290e-03	4.281900e-04	2	false	GAMG	3.150090e-02	2.330730e-04	4	true