# Solver information
# Time        	alpha.water_solver	alpha.water_initial	alpha.water_final	alpha.water_iters	alpha.water_converged	p_rgh_solver  	p_rgh_initial 	p_rgh_final   	p_rgh_iters   	p_rgh_converged
0.00120482    	smoothSolver	0.000000e+00	0.000000e+00	0	true	DICPCG	1.000000e+00	4.877770e-02	1	true
0.00265769    	smoothSolver	9.364430e-05	2.242890e-15	2	true	DICPCG	7.966760e-04	3.471080e-05	18	true
0.00439595    	smoothSolver	6.362610e-05	2.003610e-09	1	true	DICPCG	5.069130e-04	2.531980e-05	8	true
0.00647429    	smoothSolver	7.235290e-05	5.880000e-10	1	true	DICPCG	4.647630e-04	1.739440e-05	3	true
0.0089355     	smoothSolver	1.085480e-04	1.436530e-09	1	true	DICPCG	6.381190e-04	2.050880e-05	2	true
0.0118731     	smoothSolver	1.628810e-04	5.000870e-09	1	true	DICPCG	9.013250e-04	2.395790e-05	2	true
0.0153981     	smoothSolver	2.414110e-04	3.880120e-13	2	true	DICPCG	1.287960e-03	3.021520e-05	2	true
0.0196282     	smoothSolver	3.533830e-04	3.335780e-12	2	true	DICPCG	1.825240e-03	3.825460e-05	2	true
0.0246515     	smoothSolver	5.074280e-04	2.372490e-11	2	true	DICPCG	2.555710e-03	4.719150e-05	2	true
0.0304475     	smoothSolver	7.018180e-04	1.284460e-10	2	true	DICPCG	3.424770e-03	1.643780e-04	1	true
0.0374028     	smoothSolver	9.979270e-04	7.211030e-10	2	true	DICPCG	4.681560e-03	2.055710e-04	1	true
0.0452274     	smoothSolver	1.326050e-03	2.596750e-09	2	true	DICPCG	6.028170e-03	2.444060e-04	1	true
0.0543562     	smoothSolver	1.800180e-03	9.314050e-09	2	true	DICPCG	7.912220e-03	2.870170e-04	1	true
0.0657671     	smoothSolver	2.607350e-03	2.137060e-10	3	true	DICPCG	1.095000e-02	3.233930e-04	1	true
0.0771781     	smoothSolver	3.046070e-03	7.132690e-10	3	true	DICPCG	1.259450e-02	3.268810e-04	1	true
0.088589      	smoothSolver	3.438620e-03	2.144560e-09	3	true	DICPCG	1.389920e-02	3.163340e-04	1	true
0.1           	smoothSolver	3.778800e-03	4.546490e-09	3	true	DICPCG	1.478120e-02	3.013550e-04	1	true
0.1125        	smoothSolver	4.480310e-03	1.691680e-10	4	true	DICPCG	1.637390e-02	2.908080e-04	1	true
0.125         	smoothSolver	4.796450e-03	2.001530e-10	4	true	DICPCG	1.619590e-02	2.757140e-04	1	true
0.1375        	smoothSolver	5.106880e-03	3.226340e-10	4	true	DICPCG	1.557270e-02	2.902700e-04	1	true
0.15          	smoothSolver	5.423200e-03	5.159460e-10	4	true	DICPCG	1.575490e-02	3.188420e-04	1	true
0.16          	smoothSolver	4.551290e-03	2.478260e-10	4	true	DICPCG	1.416260e-02	3.078480e-04	1	true
0.17          	smoothSolver	4.721430e-03	4.557570e-10	4	true	DICPCG	1.339650e-02	3.050690e-04	1	true
0.18          	smoothSolver	4.915930e-03	8.129390e-10	4	true	DICPCG	1.360370e-02	3.480480e-04	1	true
0.19          	smoothSolver	5.062210e-03	9.229550e-10	4	true	DICPCG	1.246870e-02	3.356780e-04	1	true
0.2           	smoothSolver	5.292360e-03	7.043720e-10	4	true	DICPCG	1.345140e-02	3.663290e-04	1	true
0.21          	smoothSolver	5.372750e-03	4.951730e-10	4	true	DICPCG	1.283100e-02	3.608280e-04	1	true
0.22          	smoothSolver	5.450390e-03	2.623340e-10	4	true	DICPCG	1.327240e-02	3.499620e-04	1	true
0.23          	smoothSolver	5.542050e-03	1.775060e-10	4	true	DICPCG	1.290100e-02	3.860810e-04	1	true
0.24          	smoothSolver	5.589770e-03	9.864380e-11	4	true	DICPCG	1.275320e-02	3.675640e-04	1	true
0.248571      	smoothSolver	4.787720e-03	4.705290e-09	3	true	DICPCG	1.141550e-02	3.396340e-04	1	true
0.257143      	smoothSolver	4.848970e-03	3.253380e-09	3	true	DICPCG	1.120780e-02	3.718040e-04	1	true
0.265714      	smoothSolver	4.923380e-03	2.695210e-09	3	true	DICPCG	1.119060e-02	3.501430e-04	1	true
0.274286      	smoothSolver	4.914190e-03	2.359750e-09	3	true	DICPCG	1.128870e-02	3.740800e-04	1	true
0.282857      	smoothSolver	4.921240e-03	2.023960e-09	3	true	DICPCG	1.111380e-02	3.519180e-04	1	true
0.291429      	smoothSolver	4.885030e-03	1.691760e-09	3	true	DICPCG	1.118620e-02	3.635870e-04	1	true
0.3           	smoothSolver	4.859440e-03	1.814370e-09	3	true	DICPCG	1.147630e-02	3.419790e-04	1	true
0.308333      	smoothSolver	4.785760e-03	1.532430e-09	3	true	DICPCG	1.130340e-02	3.660530e-04	1	true
0.316667      	smoothSolver	4.806170e-03	1.913950e-09	3	true	DICPCG	1.114850e-02	3.539760e-04	1	true
0.325         	smoothSolver	4.767610e-03	2.628320e-09	3	true	DICPCG	1.109820e-02	3.401460e-04	1	true
0.333333      	smoothSolver	4.709600e-03	3.302820e-09	3	true	DICPCG	1.129330e-02	3.298060e-04	1	true
0.341667      	smoothSolver	4.692920e-03	5.229110e-09	3	true	DICPCG	1.137580e-02	3.546540e-04	1	true
0.348958      	smoothSolver	4.092370e-03	3.263670e-09	3	true	DICPCG	1.037500e-02	3.588230e-04	1	true
0.35625       	smoothSolver	4.078570e-03	5.283840e-09	3	true	DICPCG	1.022350e-02	3.130610e-04	1	true
0.3625        	smoothSolver	3.489760e-03	3.279510e-09	3	true	DICPCG	9.291010e-03	2.863900e-04	1	true
0.36875       	smoothSolver	3.463570e-03	4.540770e-09	3	true	DICPCG	9.306110e-03	3.057250e-04	1	true
0.375         	smoothSolver	3.454510e-03	6.856980e-09	3	true	DICPCG	9.371910e-03	3.328320e-04	1	true
0.38125       	smoothSolver	3.447670e-03	1.957050e-10	4	true	DICPCG	9.343730e-03	3.490130e-04	1	true
0.3875        	smoothSolver	3.433580e-03	2.548640e-10	4	true	DICPCG	9.338560e-03	3.260350e-04	1	true
0.39375       	smoothSolver	3.419770e-03	3.443400e-10	4	true	DICPCG	9.365840e-03	3.495250e-04	1	true
0.4           	smoothSolver	3.404020e-03	4.423840e-10	4	true	DICPCG	9.278460e-03	3.042030e-04	1	true
0.405263      	smoothSolver	2.852080e-03	1.565810e-10	4	true	DICPCG	8.143340e-03	2.908580e-04	1	true
0.410526      	smoothSolver	2.859820e-03	1.738100e-10	4	true	DICPCG	8.088290e-03	2.721070e-04	1	true
0.415789      	smoothSolver	2.856530e-03	1.768770e-10	4	true	DICPCG	8.189480e-03	2.884270e-04	1	true
0.420743      	smoothSolver	2.677500e-03	9.038520e-09	3	true	DICPCG	7.771550e-03	2.905440e-04	1	true
0.425405      	smoothSolver	2.515750e-03	6.074750e-09	3	true	DICPCG	7.380450e-03	2.972360e-04	1	true
0.430067      	smoothSolver	2.514890e-03	5.719780e-09	3	true	DICPCG	7.390500e-03	3.215810e-04	1	true
0.43473       	smoothSolver	2.505760e-03	5.152120e-09	3	true	DICPCG	7.512200e-03	3.099460e-04	1	true
0.439081      	smoothSolver	2.328040e-03	3.548410e-09	3	true	DICPCG	7.009410e-03	2.514330e-04	1	true
0.443432      	smoothSolver	2.320670e-03	3.938640e-09	3	true	DICPCG	6.978410e-03	2.530360e-04	1	true
0.447784      	smoothSolver	2.309150e-03	4.584360e-09	3	true	DICPCG	6.971790e-03	2.551100e-04	1	true
0.452135      	smoothSolver	2.302790e-03	5.266760e-09	3	true	DICPCG	6.909910e-03	2.597120e-04	1	true
0.456486      	smoothSolver	2.307940e-03	5.887910e-09	3	true	DICPCG	7.102190e-03	2.525070e-04	1	true
0.460838      	smoothSolver	2.315950e-03	6.478360e-09	3	true	DICPCG	7.063840e-03	2.622980e-04	1	true
0.465189      	smoothSolver	2.321050e-03	6.987850e-09	3	true	DICPCG	7.060830e-03	2.768190e-04	1	true
0.46954       	smoothSolver	2.323020e-03	7.348120e-09	3	true	DICPCG	7.008280e-03	2.860720e-04	1	true
0.473892      	smoothSolver	2.324740e-03	7.619090e-09	3	true	DICPCG	7.230710e-03	2.842670e-04	1	true
0.478243      	smoothSolver	2.328450e-03	7.767330e-09	3	true	DICPCG	7.170950e-03	2.675070e-04	1	true
0.482595      	smoothSolver	2.329150e-03	7.758530e-09	3	true	DICPCG	7.154360e-03	2.907170e-04	1	true
0.486946      	smoothSolver	2.323220e-03	7.602730e-09	3	true	DICPCG	7.274150e-03	2.715700e-04	1	true
0.491297      	smoothSolver	2.315480e-03	7.388770e-09	3	true	DICPCG	7.336910e-03	2.835130e-04	1	true
0.495649      	smoothSolver	2.323120e-03	7.143910e-09	3	true	DICPCG	7.177500e-03	2.869750e-04	1	true
0.5           	smoothSolver	2.330510e-03	6.870940e-09	3	true	DICPCG	7.531700e-03	2.972310e-04	1	true
0.505         	smoothSolver	2.679510e-03	1.164050e-10	4	true	DICPCG	8.592270e-03	2.893290e-04	1	true
0.510588      	smoothSolver	3.001990e-03	2.329240e-10	4	true	DICPCG	9.901940e-03	2.701550e-04	1	true
0.516176      	smoothSolver	3.021400e-03	2.251400e-10	4	true	DICPCG	9.939260e-03	2.636390e-04	1	true
0.521765      	smoothSolver	3.022220e-03	2.279310e-10	4	true	DICPCG	9.936250e-03	2.795530e-04	1	true
0.527783      	smoothSolver	3.244720e-03	3.636050e-10	4	true	DICPCG	1.062300e-02	3.101200e-04	1	true
0.533801      	smoothSolver	3.253950e-03	3.487140e-10	4	true	DICPCG	1.061730e-02	3.341770e-04	1	true
0.539819      	smoothSolver	3.266250e-03	3.244870e-10	4	true	DICPCG	1.064840e-02	3.630320e-04	1	true
0.545837      	smoothSolver	3.264380e-03	2.970260e-10	4	true	DICPCG	1.057680e-02	3.486170e-04	1	true
0.551855      	smoothSolver	3.276160e-03	2.741720e-10	4	true	DICPCG	1.051110e-02	3.571000e-04	1	true
0.557873      	smoothSolver	3.288180e-03	2.557930e-10	4	true	DICPCG	1.044560e-02	3.506770e-04	1	true
0.563891      	smoothSolver	3.296590e-03	2.424500e-10	4	true	DICPCG	1.037770e-02	3.663880e-04	1	true
0.56991       	smoothSolver	3.307920e-03	2.328110e-10	4	true	DICPCG	1.023630e-02	3.928620e-04	1	true
0.575928      	smoothSolver	3.324550e-03	2.259940e-10	4	true	DICPCG	1.031950e-02	3.675840e-04	1	true
0.581946      	smoothSolver	3.338420e-03	2.192390e-10	4	true	DICPCG	1.031550e-02	4.296620e-04	1	true
0.587964      	smoothSolver	3.361180e-03	2.105420e-10	4	true	DICPCG	1.014130e-02	4.160800e-04	1	true
0.593982      	smoothSolver	3.375430e-03	2.001870e-10	4	true	DICPCG	9.979160e-03	4.298850e-04	1	true
0.6           	smoothSolver	3.387250e-03	1.905360e-10	4	true	DICPCG	1.015340e-02	4.365280e-04	1	true
0.606667      	smoothSolver	3.763940e-03	3.624500e-10	4	true	DICPCG	1.116320e-02	5.031300e-04	1	true
0.612889      	smoothSolver	3.527970e-03	2.270840e-10	4	true	DICPCG	1.015710e-02	4.197580e-04	1	true
0.618696      	smoothSolver	3.314860e-03	1.420410e-10	4	true	DICPCG	9.861070e-03	4.132210e-04	1	true
0.624504      	smoothSolver	3.340870e-03	1.427610e-10	4	true	DICPCG	9.836540e-03	4.479660e-04	1	true
0.629896      	smoothSolver	3.122430e-03	8.945760e-09	3	true	DICPCG	8.964500e-03	4.195840e-04	1	true
0.635289      	smoothSolver	3.138480e-03	8.719510e-09	3	true	DICPCG	9.343490e-03	4.280620e-04	1	true
0.640681      	smoothSolver	3.155040e-03	8.410080e-09	3	true	DICPCG	9.097180e-03	4.215370e-04	1	true
0.646074      	smoothSolver	3.167170e-03	8.117780e-09	3	true	DICPCG	9.477470e-03	4.080770e-04	1	true
0.651467      	smoothSolver	3.183500e-03	7.835330e-09	3	true	DICPCG	9.279460e-03	3.766910e-04	1	true
0.65632       	smoothSolver	2.883850e-03	4.438040e-09	3	true	DICPCG	8.666830e-03	3.299090e-04	1	true
0.661173      	smoothSolver	2.895970e-03	4.290300e-09	3	true	DICPCG	9.462460e-03	2.698980e-04	1	true
0.666027      	smoothSolver	2.905050e-03	4.172560e-09	3	true	DICPCG	9.498360e-03	2.845410e-04	1	true
0.67088       	smoothSolver	2.917120e-03	4.085450e-09	3	true	DICPCG	9.588970e-03	3.228460e-04	1	true
0.675733      	smoothSolver	2.929050e-03	4.006830e-09	3	true	DICPCG	9.497610e-03	2.866710e-04	1	true
0.680587      	smoothSolver	2.934940e-03	3.934170e-09	3	true	DICPCG	9.474950e-03	3.026930e-04	1	true
0.68544       	smoothSolver	2.943640e-03	3.840840e-09	3	true	DICPCG	9.412440e-03	3.104770e-04	1	true
0.690293      	smoothSolver	2.961390e-03	3.719790e-09	3	true	DICPCG	9.376750e-03	3.160870e-04	1	true
0.695147      	smoothSolver	2.981180e-03	3.558970e-09	3	true	DICPCG	9.339430e-03	3.462930e-04	1	true
0.7           	smoothSolver	2.997650e-03	3.345650e-09	3	true	DICPCG	9.210050e-03	3.563650e-04	1	true
0.704545      	smoothSolver	2.821520e-03	2.213000e-09	3	true	DICPCG	8.685100e-03	3.256680e-04	1	true
0.709091      	smoothSolver	2.833060e-03	2.083310e-09	3	true	DICPCG	8.536230e-03	3.052250e-04	1	true
0.713636      	smoothSolver	2.844020e-03	1.968270e-09	3	true	DICPCG	8.433850e-03	3.064180e-04	1	true
0.718182      	smoothSolver	2.848100e-03	1.872220e-09	3	true	DICPCG	8.387120e-03	3.205930e-04	1	true
0.722995      	smoothSolver	3.016000e-03	2.391470e-09	3	true	DICPCG	8.783680e-03	3.590510e-04	1	true
0.728128      	smoothSolver	3.222530e-03	3.172560e-09	3	true	DICPCG	9.256680e-03	3.794300e-04	1	true
0.733262      	smoothSolver	3.222950e-03	2.981360e-09	3	true	DICPCG	9.215700e-03	3.611100e-04	1	true
0.738824      	smoothSolver	3.502130e-03	4.404930e-09	3	true	DICPCG	9.964340e-03	4.296980e-04	1	true
0.744385      	smoothSolver	3.516180e-03	4.276300e-09	3	true	DICPCG	9.808800e-03	4.253410e-04	1	true
0.750564      	smoothSolver	3.915500e-03	7.275740e-09	3	true	DICPCG	1.097190e-02	4.881390e-04	1	true
0.756744      	smoothSolver	3.928300e-03	7.198510e-09	3	true	DICPCG	1.076110e-02	4.857700e-04	1	true
0.762923      	smoothSolver	3.943380e-03	7.238990e-09	3	true	DICPCG	1.068360e-02	5.154230e-04	1	true
0.769103      	smoothSolver	3.950000e-03	7.329040e-09	3	true	DICPCG	1.121410e-02	5.295570e-04	1	true
0.775282      	smoothSolver	3.951780e-03	7.428030e-09	3	true	DICPCG	1.089630e-02	2.122230e-04	2	true
0.781462      	smoothSolver	3.952660e-03	7.546710e-09	3	true	DICPCG	1.117420e-02	2.072790e-04	2	true
0.787641      	smoothSolver	3.951040e-03	7.592110e-09	3	true	DICPCG	1.175290e-02	2.210440e-04	2	true
0.793821      	smoothSolver	3.954940e-03	7.588580e-09	3	true	DICPCG	1.193830e-02	2.224210e-04	2	true
0.8           	smoothSolver	3.956650e-03	7.509390e-09	3	true	DICPCG	1.299630e-02	5.193460e-04	1	true
0.805882      	smoothSolver	3.766850e-03	5.527340e-09	3	true	DICPCG	1.230240e-02	5.521450e-04	1	true
0.811419      	smoothSolver	3.555080e-03	3.841230e-09	3	true	DICPCG	1.159760e-02	5.460280e-04	1	true
0.816955      	smoothSolver	3.562550e-03	3.652130e-09	3	true	DICPCG	1.168620e-02	5.621590e-04	1	true
0.822491      	smoothSolver	3.577850e-03	3.472440e-09	3	true	DICPCG	1.182950e-02	5.894960e-04	1	true
0.828028      	smoothSolver	3.594840e-03	3.324880e-09	3	true	DICPCG	1.166500e-02	2.083560e-04	2	true
0.833564      	smoothSolver	3.605600e-03	3.245880e-09	3	true	DICPCG	1.171090e-02	2.120480e-04	2	true
0.8391        	smoothSolver	3.622350e-03	3.223340e-09	3	true	DICPCG	1.157220e-02	2.147810e-04	2	true
0.844637      	smoothSolver	3.632080e-03	3.204090e-09	3	true	DICPCG	1.164440e-02	2.167180e-04	2	true
0.850173      	smoothSolver	3.644990e-03	3.183000e-09	3	true	DICPCG	1.185540e-02	2.218160e-04	2	true
0.855709      	smoothSolver	3.658810e-03	3.150070e-09	3	true	DICPCG	1.146010e-02	2.237290e-04	2	true
0.861246      	smoothSolver	3.674430e-03	3.127500e-09	3	true	DICPCG	1.129170e-02	2.266450e-04	2	true
0.867705      	smoothSolver	4.293100e-03	7.169940e-09	3	true	DICPCG	1.285330e-02	2.710890e-04	2	true
0.874164      	smoothSolver	4.309340e-03	7.124840e-09	3	true	DICPCG	1.259370e-02	2.679870e-04	2	true
0.880623      	smoothSolver	4.323450e-03	7.096610e-09	3	true	DICPCG	1.243430e-02	2.624170e-04	2	true
0.887082      	smoothSolver	4.336960e-03	7.075670e-09	3	true	DICPCG	1.249600e-02	2.740990e-04	2	true
0.893541      	smoothSolver	4.351650e-03	7.076650e-09	3	true	DICPCG	1.203370e-02	2.680690e-04	2	true
0.9           	smoothSolver	4.356990e-03	7.098510e-09	3	true	DICPCG	1.210730e-02	2.646730e-04	2	true
0.905556      	smoothSolver	3.750580e-03	3.119740e-09	3	true	DICPCG	1.044370e-02	2.348530e-04	2	true
0.911111      	smoothSolver	3.747160e-03	3.143490e-09	3	true	DICPCG	1.034630e-02	2.323720e-04	2	true
0.91634       	smoothSolver	3.527440e-03	2.263850e-09	3	true	DICPCG	9.724480e-03	2.203190e-04	2	true
0.921569      	smoothSolver	3.523790e-03	2.290760e-09	3	true	DICPCG	9.972540e-03	2.198930e-04	2	true
0.926471      	smoothSolver	3.304250e-03	1.613040e-09	3	true	DICPCG	9.365370e-03	2.042310e-04	2	true
0.931373      	smoothSolver	3.306180e-03	1.631070e-09	3	true	DICPCG	9.570930e-03	2.019170e-04	2	true
0.936275      	smoothSolver	3.307260e-03	1.652590e-09	3	true	DICPCG	9.861400e-03	1.936340e-04	2	true
0.941176      	smoothSolver	3.304820e-03	1.675830e-09	3	true	DICPCG	9.964430e-03	4.495620e-04	1	true
0.945701      	smoothSolver	3.045430e-03	1.077380e-09	3	true	DICPCG	9.739930e-03	3.765650e-04	1	true
0.950226      	smoothSolver	3.047740e-03	1.098150e-09	3	true	DICPCG	9.730720e-03	3.789280e-04	1	true
0.954751      	smoothSolver	3.049130e-03	1.119830e-09	3	true	DICPCG	9.651370e-03	3.736360e-04	1	true
0.959276      	smoothSolver	3.048570e-03	1.144660e-09	3	true	DICPCG	9.572040e-03	3.734830e-04	1	true
0.963801      	smoothSolver	3.047720e-03	1.168800e-09	3	true	DICPCG	9.485150e-03	3.775960e-04	1	true
0.967823      	smoothSolver	2.704030e-03	6.052700e-10	3	true	DICPCG	8.434300e-03	3.464030e-04	1	true
0.971845      	smoothSolver	2.698120e-03	6.165600e-10	3	true	DICPCG	8.395210e-03	3.535070e-04	1	true
0.975867      	smoothSolver	2.692560e-03	6.233900e-10	3	true	DICPCG	8.264140e-03	3.481020e-04	1	true
0.979889      	smoothSolver	2.684510e-03	6.244400e-10	3	true	DICPCG	8.011040e-03	3.426360e-04	1	true
0.983912      	smoothSolver	2.673590e-03	6.233830e-10	3	true	DICPCG	7.853630e-03	3.493740e-04	1	true
0.987934      	smoothSolver	2.661000e-03	6.166960e-10	3	true	DICPCG	7.729700e-03	3.477280e-04	1	true
0.991956      	smoothSolver	2.643390e-03	6.074290e-10	3	true	DICPCG	7.689600e-03	3.471140e-04	1	true
0.995978      	smoothSolver	2.626760e-03	5.939500e-10	3	true	DICPCG	7.626700e-03	3.444710e-04	1	true
1             	smoothSolver	2.614050e-03	5.791980e-10	3	true	DICPCG	7.571070e-03	3.389350e-04	1	true
1.00417       	smoothSolver	2.693900e-03	6.918970e-10	3	true	DICPCG	7.775560e-03	3.563130e-04	1	true
1.00833       	smoothSolver	2.680840e-03	6.715500e-10	3	true	DICPCG	7.645700e-03	2.556730e-04	1	true
1.0127        	smoothSolver	2.794550e-03	8.554070e-10	3	true	DICPCG	7.850260e-03	2.709620e-04	1	true
1.01706       	smoothSolver	2.777160e-03	8.272160e-10	3	true	DICPCG	7.771250e-03	2.735080e-04	1	true
1.02167       	smoothSolver	2.914490e-03	1.095110e-09	3	true	DICPCG	8.034650e-03	2.928750e-04	1	true
1.02628       	smoothSolver	2.901020e-03	1.054510e-09	3	true	DICPCG	7.902140e-03	2.961120e-04	1	true
1.03089       	smoothSolver	2.884390e-03	1.014550e-09	3	true	DICPCG	7.778160e-03	2.791210e-04	1	true
1.03549       	smoothSolver	2.867340e-03	9.761790e-10	3	true	DICPCG	7.582130e-03	2.817540e-04	1	true
1.0401        	smoothSolver	2.852550e-03	9.379960e-10	3	true	DICPCG	7.457550e-03	2.894810e-04	1	true
1.04471       	smoothSolver	2.836810e-03	9.058960e-10	3	true	DICPCG	7.373150e-03	2.980880e-04	1	true
1.04974       	smoothSolver	3.077150e-03	1.454630e-09	3	true	DICPCG	7.922440e-03	3.068360e-04	1	true
1.05476       	smoothSolver	3.055100e-03	1.403020e-09	3	true	DICPCG	7.829600e-03	3.084400e-04	1	true
1.05979       	smoothSolver	3.033240e-03	1.356390e-09	3	true	DICPCG	7.638020e-03	3.035840e-04	1	true
1.06481       	smoothSolver	3.013820e-03	1.320270e-09	3	true	DICPCG	7.607840e-03	2.947530e-04	1	true
1.06984       	smoothSolver	2.995920e-03	1.285870e-09	3	true	DICPCG	7.481190e-03	3.051730e-04	1	true
1.07487       	smoothSolver	2.976490e-03	1.254360e-09	3	true	DICPCG	7.295820e-03	2.883630e-04	1	true
1.07989       	smoothSolver	2.953400e-03	1.225420e-09	3	true	DICPCG	7.265570e-03	2.959730e-04	1	true
1.08492       	smoothSolver	2.930680e-03	1.196900e-09	3	true	DICPCG	7.072150e-03	2.805690e-04	1	true
1.08995       	smoothSolver	2.910870e-03	1.168520e-09	3	true	DICPCG	7.088280e-03	2.891770e-04	1	true
1.09497       	smoothSolver	2.895020e-03	1.141530e-09	3	true	DICPCG	7.096700e-03	2.797240e-04	1	true
1.1           	smoothSolver	2.885310e-03	1.116170e-09	3	true	DICPCG	6.989230e-03	2.692570e-04	1	true
1.10556       	smoothSolver	3.180020e-03	1.942010e-09	3	true	DICPCG	7.707930e-03	2.882530e-04	1	true
1.11146       	smoothSolver	3.368100e-03	2.682120e-09	3	true	DICPCG	8.216950e-03	2.499060e-04	1	true
1.11778       	smoothSolver	3.599330e-03	3.875140e-09	3	true	DICPCG	9.589990e-03	2.088500e-04	1	true
1.12411       	smoothSolver	3.591120e-03	3.803650e-09	3	true	DICPCG	9.473340e-03	1.988460e-04	1	true
1.13043       	smoothSolver	3.582110e-03	3.755500e-09	3	true	DICPCG	9.403690e-03	2.027470e-04	1	true
1.13676       	smoothSolver	3.574450e-03	3.721850e-09	3	true	DICPCG	9.361210e-03	2.077850e-04	1	true
1.14308       	smoothSolver	3.566660e-03	3.687730e-09	3	true	DICPCG	9.337940e-03	2.173630e-04	1	true
1.1494        	smoothSolver	3.560090e-03	3.643180e-09	3	true	DICPCG	9.235810e-03	2.276750e-04	1	true
1.15573       	smoothSolver	3.551210e-03	3.579140e-09	3	true	DICPCG	9.158600e-03	2.383160e-04	1	true
1.16205       	smoothSolver	3.542600e-03	3.498820e-09	3	true	DICPCG	9.050970e-03	2.461260e-04	1	true
1.16838       	smoothSolver	3.536310e-03	3.403120e-09	3	true	DICPCG	8.946770e-03	2.470570e-04	1	true
1.1747        	smoothSolver	3.530160e-03	3.310140e-09	3	true	DICPCG	8.904130e-03	2.541630e-04	1	true
1.18103       	smoothSolver	3.529290e-03	3.231570e-09	3	true	DICPCG	8.861840e-03	2.655610e-04	1	true
1.18735       	smoothSolver	3.528410e-03	3.173420e-09	3	true	DICPCG	8.851490e-03	2.790130e-04	1	true
1.19368       	smoothSolver	3.527980e-03	3.136660e-09	3	true	DICPCG	8.769100e-03	2.880670e-04	1	true
1.2           	smoothSolver	3.531130e-03	3.116450e-09	3	true	DICPCG	8.642140e-03	2.812110e-04	1	true
1.20667       	smoothSolver	3.726280e-03	4.173310e-09	3	true	DICPCG	9.131200e-03	3.111620e-04	1	true
1.21333       	smoothSolver	3.734080e-03	4.158890e-09	3	true	DICPCG	9.010180e-03	3.202760e-04	1	true
1.22          	smoothSolver	3.744720e-03	4.136750e-09	3	true	DICPCG	8.940510e-03	3.111080e-04	1	true
1.22667       	smoothSolver	3.752240e-03	4.109880e-09	3	true	DICPCG	9.101000e-03	3.032450e-04	1	true
1.23278       	smoothSolver	3.447120e-03	2.514410e-09	3	true	DICPCG	8.402620e-03	2.865540e-04	1	true
1.23889       	smoothSolver	3.453320e-03	2.519770e-09	3	true	DICPCG	8.320330e-03	2.961260e-04	1	true
1.245         	smoothSolver	3.461120e-03	2.519050e-09	3	true	DICPCG	8.217990e-03	2.913040e-04	1	true
1.25111       	smoothSolver	3.467420e-03	2.512210e-09	3	true	DICPCG	8.123370e-03	3.022180e-04	1	true
1.25722       	smoothSolver	3.474580e-03	2.495410e-09	3	true	DICPCG	8.035580e-03	3.060480e-04	1	true
1.26333       	smoothSolver	3.480380e-03	2.478130e-09	3	true	DICPCG	8.045720e-03	3.062800e-04	1	true
1.26944       	smoothSolver	3.485880e-03	2.446950e-09	3	true	DICPCG	8.001840e-03	3.303900e-04	1	true
1.27556       	smoothSolver	3.493430e-03	2.394230e-09	3	true	DICPCG	7.982300e-03	3.228420e-04	1	true
1.28167       	smoothSolver	3.504410e-03	2.337140e-09	3	true	DICPCG	7.958190e-03	3.440420e-04	1	true
1.28778       	smoothSolver	3.514120e-03	2.279110e-09	3	true	DICPCG	7.913770e-03	3.538060e-04	1	true
1.29389       	smoothSolver	3.523660e-03	2.229590e-09	3	true	DICPCG	7.930300e-03	3.654940e-04	1	true
1.3           	smoothSolver	3.532480e-03	2.190750e-09	3	true	DICPCG	7.968170e-03	3.412450e-04	1	true
1.30556       	smoothSolver	3.216750e-03	1.264560e-09	3	true	DICPCG	7.257410e-03	3.017030e-04	1	true
1.31111       	smoothSolver	3.218680e-03	1.257120e-09	3	true	DICPCG	7.705340e-03	3.061560e-04	1	true
1.31667       	smoothSolver	3.222850e-03	1.242100e-09	3	true	DICPCG	7.769030e-03	3.061670e-04	1	true
1.32222       	smoothSolver	3.228300e-03	1.223100e-09	3	true	DICPCG	7.697510e-03	3.018760e-04	1	true
1.32778       	smoothSolver	3.232080e-03	1.198700e-09	3	true	DICPCG	7.695950e-03	3.017970e-04	1	true
1.33333       	smoothSolver	3.235280e-03	1.170410e-09	3	true	DICPCG	7.598990e-03	2.997890e-04	1	true
1.33889       	smoothSolver	3.235280e-03	1.136780e-09	3	true	DICPCG	7.483700e-03	2.827900e-04	1	true
1.34444       	smoothSolver	3.233760e-03	1.099380e-09	3	true	DICPCG	7.645200e-03	2.009390e-04	1	true
1.35          	smoothSolver	3.232230e-03	1.063860e-09	3	true	DICPCG	7.833210e-03	1.846930e-04	1	true
1.35556       	smoothSolver	3.229790e-03	1.028610e-09	3	true	DICPCG	7.849470e-03	1.877330e-04	1	true
1.36111       	smoothSolver	3.224170e-03	9.869990e-10	3	true	DICPCG	7.859320e-03	1.922460e-04	1	true
1.36667       	smoothSolver	3.218350e-03	9.442070e-10	3	true	DICPCG	7.833860e-03	1.952830e-04	1	true
1.37222       	smoothSolver	3.208530e-03	9.008010e-10	3	true	DICPCG	7.774330e-03	2.003910e-04	1	true
1.37778       	smoothSolver	3.203930e-03	8.599540e-10	3	true	DICPCG	7.704820e-03	2.017980e-04	1	true
1.38333       	smoothSolver	3.199040e-03	8.220920e-10	3	true	DICPCG	7.915740e-03	2.068750e-04	1	true
1.38889       	smoothSolver	3.191030e-03	7.864220e-10	3	true	DICPCG	7.843500e-03	2.119480e-04	1	true
1.39444       	smoothSolver	3.183320e-03	7.527700e-10	3	true	DICPCG	7.788260e-03	2.162030e-04	1	true
1.4           	smoothSolver	3.179820e-03	7.216920e-10	3	true	DICPCG	7.718280e-03	2.149220e-04	1	true
1.40588       	smoothSolver	3.367840e-03	9.570000e-10	3	true	DICPCG	8.066500e-03	2.363570e-04	1	true
1.41176       	smoothSolver	3.365810e-03	9.236430e-10	3	true	DICPCG	7.932920e-03	2.303820e-04	1	true
1.41765       	smoothSolver	3.361550e-03	8.857850e-10	3	true	DICPCG	7.936150e-03	2.280380e-04	1	true
1.42353       	smoothSolver	3.350130e-03	8.516500e-10	3	true	DICPCG	7.902980e-03	2.309480e-04	1	true
1.42941       	smoothSolver	3.332310e-03	8.203020e-10	3	true	DICPCG	7.807950e-03	2.375250e-04	1	true
1.43529       	smoothSolver	3.318800e-03	7.898950e-10	3	true	DICPCG	7.697550e-03	2.420170e-04	1	true
1.44176       	smoothSolver	3.636950e-03	1.290230e-09	3	true	DICPCG	8.267400e-03	2.750920e-04	1	true
1.44824       	smoothSolver	3.622400e-03	1.248250e-09	3	true	DICPCG	8.108290e-03	2.665610e-04	1	true
1.45471       	smoothSolver	3.610370e-03	1.201760e-09	3	true	DICPCG	8.192380e-03	2.631260e-04	1	true
1.46118       	smoothSolver	3.600390e-03	1.168670e-09	3	true	DICPCG	8.063870e-03	2.705950e-04	1	true
1.46765       	smoothSolver	3.588870e-03	1.150020e-09	3	true	DICPCG	7.950820e-03	2.769270e-04	1	true
1.47412       	smoothSolver	3.576910e-03	1.136840e-09	3	true	DICPCG	7.829910e-03	2.838470e-04	1	true
1.48059       	smoothSolver	3.565890e-03	1.139550e-09	3	true	DICPCG	7.713230e-03	2.913780e-04	1	true
1.48706       	smoothSolver	3.559990e-03	1.157320e-09	3	true	DICPCG	7.602810e-03	3.023920e-04	1	true
1.49353       	smoothSolver	3.550610e-03	1.182070e-09	3	true	DICPCG	7.498570e-03	3.138750e-04	1	true
1.5           	smoothSolver	3.536350e-03	1.215150e-09	3	true	DICPCG	7.400380e-03	3.259750e-04	1	true
1.50667       	smoothSolver	3.623890e-03	1.478350e-09	3	true	DICPCG	7.473050e-03	3.495480e-04	1	true
1.51333       	smoothSolver	3.599650e-03	1.560680e-09	3	true	DICPCG	7.361520e-03	3.598400e-04	1	true
1.52          	smoothSolver	3.574180e-03	1.634120e-09	3	true	DICPCG	7.263460e-03	1.272150e-04	2	true
1.52727       	smoothSolver	3.870790e-03	2.716710e-09	3	true	DICPCG	7.688700e-03	1.462460e-04	2	true
1.53455       	smoothSolver	3.839050e-03	2.830730e-09	3	true	DICPCG	7.471810e-03	1.489630e-04	2	true
1.54182       	smoothSolver	3.805280e-03	2.881680e-09	3	true	DICPCG	7.261860e-03	1.538850e-04	2	true
1.54909       	smoothSolver	3.770240e-03	2.888820e-09	3	true	DICPCG	7.065270e-03	1.590080e-04	2	true
1.55636       	smoothSolver	3.734790e-03	2.847170e-09	3	true	DICPCG	6.955170e-03	1.620650e-04	2	true
1.56364       	smoothSolver	3.695020e-03	2.780710e-09	3	true	DICPCG	6.861750e-03	1.697590e-04	2	true
1.57091       	smoothSolver	3.659320e-03	2.686720e-09	3	true	DICPCG	6.719750e-03	1.807100e-04	2	true
1.57818       	smoothSolver	3.621360e-03	2.561840e-09	3	true	DICPCG	6.590860e-03	1.863360e-04	2	true
1.58545       	smoothSolver	3.582540e-03	2.393020e-09	3	true	DICPCG	6.449510e-03	1.897680e-04	2	true
1.59273       	smoothSolver	3.550440e-03	2.176070e-09	3	true	DICPCG	6.336870e-03	1.933540e-04	2	true
1.6           	smoothSolver	3.521600e-03	1.946050e-09	3	true	DICPCG	6.239480e-03	1.960780e-04	2	true
1.60714       	smoothSolver	3.431780e-03	1.567810e-09	3	true	DICPCG	6.098810e-03	1.967630e-04	2	true
1.61429       	smoothSolver	3.398700e-03	1.382960e-09	3	true	DICPCG	6.089180e-03	2.004950e-04	2	true
1.62143       	smoothSolver	3.368870e-03	1.242490e-09	3	true	DICPCG	6.060560e-03	1.920790e-04	2	true
1.62857       	smoothSolver	3.339540e-03	1.135490e-09	3	true	DICPCG	5.988650e-03	1.841610e-04	2	true
1.63651       	smoothSolver	3.678340e-03	1.827970e-09	3	true	DICPCG	6.394690e-03	1.927500e-04	2	true
1.64444       	smoothSolver	3.646810e-03	1.668520e-09	3	true	DICPCG	6.333450e-03	1.722830e-04	2	true
1.65238       	smoothSolver	3.619060e-03	1.500690e-09	3	true	DICPCG	6.327020e-03	1.593250e-04	2	true
1.66032       	smoothSolver	3.594210e-03	1.332540e-09	3	true	DICPCG	6.311000e-03	1.497840e-04	2	true
1.66825       	smoothSolver	3.570910e-03	1.165930e-09	3	true	DICPCG	6.337350e-03	1.431210e-04	2	true
1.67619       	smoothSolver	3.547740e-03	1.018510e-09	3	true	DICPCG	6.328630e-03	1.352340e-04	2	true
1.68413       	smoothSolver	3.530000e-03	8.982340e-10	3	true	DICPCG	6.359130e-03	1.321790e-04	2	true
1.69206       	smoothSolver	3.516140e-03	8.059330e-10	3	true	DICPCG	6.363000e-03	1.290240e-04	2	true
1.7           	smoothSolver	3.502110e-03	7.426590e-10	3	true	DICPCG	6.401240e-03	1.206220e-04	2	true
1.70909       	smoothSolver	3.999640e-03	1.562990e-09	3	true	DICPCG	6.994060e-03	3.094040e-04	1	true
1.71818       	smoothSolver	3.989130e-03	1.574660e-09	3	true	DICPCG	7.556230e-03	2.273400e-04	1	true
1.72727       	smoothSolver	3.979160e-03	1.594580e-09	3	true	DICPCG	7.702060e-03	2.231250e-04	1	true
1.73636       	smoothSolver	3.974270e-03	1.538120e-09	3	true	DICPCG	7.822690e-03	2.228780e-04	1	true
1.74545       	smoothSolver	3.970050e-03	1.580290e-09	3	true	DICPCG	8.005220e-03	2.187640e-04	1	true
1.75455       	smoothSolver	3.967710e-03	1.740670e-09	3	true	DICPCG	8.273110e-03	2.251130e-04	1	true
1.76364       	smoothSolver	3.960300e-03	1.628800e-09	3	true	DICPCG	8.357870e-03	2.245670e-04	1	true
1.77273       	smoothSolver	3.953470e-03	1.420660e-09	3	true	DICPCG	8.458280e-03	2.235520e-04	1	true
1.78182       	smoothSolver	3.948000e-03	1.335680e-09	3	true	DICPCG	8.578870e-03	2.306300e-04	1	true
1.79091       	smoothSolver	3.941200e-03	1.261750e-09	3	true	DICPCG	8.576940e-03	2.289160e-04	1	true
1.8           	smoothSolver	3.932820e-03	1.188040e-09	3	true	DICPCG	8.689860e-03	2.331030e-04	1	true
1.81          	smoothSolver	4.321770e-03	1.894990e-09	3	true	DICPCG	9.500510e-03	2.578660e-04	1	true
1.82          	smoothSolver	4.327380e-03	1.745170e-09	3	true	DICPCG	9.710210e-03	2.620510e-04	1	true
1.83          	smoothSolver	4.330910e-03	1.614940e-09	3	true	DICPCG	9.919230e-03	2.803800e-04	1	true