# Solver information
# Time              	p_rgh_solver        	p_rgh_initial       	p_rgh_final         	p_rgh_iters         	p_rgh_converged     
0.000119904076739   	GAMG	1.000000000000e+00	3.193449588740e-03	2	true
0.000263650750869   	GAMG	7.398222088840e-03	4.674157709640e-05	5	true
0.000436346407984   	GAMG	3.560086228670e-03	2.385900705110e-05	5	true
0.000643725711716   	GAMG	2.057580505100e-04	6.024369172650e-07	3	true
0.000892999824283   	GAMG	2.669266350920e-05	2.052472115580e-07	2	true
0.00119243275218    	GAMG	1.082342301210e-05	6.073779253230e-08	2	true
0.00155131192312    	GAMG	6.333300882730e-06	2.539777102470e-08	2	true
0.00198006137513    	GAMG	4.570363252360e-06	1.308722387280e-08	2	true
0.00249640480121    	GAMG	3.931250820030e-06	3.699752356930e-08	1	true
0.00311333460898    	GAMG	4.656456004310e-06	3.712228017510e-08	1	true
0.00385756739297    	GAMG	5.060462265560e-06	3.509179876410e-08	1	true
0.00474492186618    	GAMG	5.636858025260e-06	3.578208755080e-08	1	true
0.00579736554371    	GAMG	6.431196086160e-06	3.898277947840e-08	1	true
0.00706029795675    	GAMG	5.557552201190e-05	5.494897512630e-07	4	true
0.00859385874401    	GAMG	6.233225634300e-05	3.596813186460e-07	5	true
0.0103941257551     	GAMG	4.524228370670e-05	2.964394433070e-07	3	true
0.0125944521021     	GAMG	4.870835582140e-05	2.447130227020e-07	2	true
0.0152662769519     	GAMG	7.042502944780e-05	3.160815599410e-07	3	true
0.0184238881381     	GAMG	7.920919863790e-05	2.667390064560e-07	3	true
0.0223709021208     	GAMG	1.364724443390e-04	1.310144174240e-06	2	true
0.0269757517674     	GAMG	1.719916443540e-04	8.364312020560e-07	2	true
0.0327318138255     	GAMG	2.582070770910e-04	2.326130218920e-06	1	true
0.0384878758837     	GAMG	2.848771080860e-04	2.042057260800e-06	1	true
0.0442439379418     	GAMG	3.063336406860e-04	1.696775275840e-06	1	true
0.05                	GAMG	3.340835175380e-04	2.019569203840e-06	1	true
0.0571428571429     	GAMG	4.301094197460e-04	2.994538251210e-06	1	true
0.0657142857143     	GAMG	5.145821218610e-04	3.047658010570e-06	1	true
0.0771428571429     	GAMG	6.520222588990e-04	3.937440899950e-06	1	true
0.0885714285714     	GAMG	6.247665036680e-04	3.735069993120e-06	1	true
0.1                 	GAMG	5.917620660510e-04	3.071554951220e-06	1	true
0.1125              	GAMG	6.717600693770e-04	3.503141125900e-06	1	true
0.13125             	GAMG	1.240842332190e-03	6.496241063670e-06	1	true
0.15                	GAMG	1.887288611220e-03	1.090667531080e-05	1	true
0.175               	GAMG	3.856556054040e-03	1.812708928040e-05	1	true
0.2                 	GAMG	5.345105744170e-03	2.294217158810e-05	1	true
0.225               	GAMG	6.678476547640e-03	2.820802679880e-05	1	true
0.25                	GAMG	8.778982684600e-03	3.588731143420e-05	1	true
0.275               	GAMG	1.144238985650e-02	4.555842526550e-05	1	true
0.2875              	GAMG	7.658918439610e-03	3.496495283510e-05	1	true
0.3                 	GAMG	8.699220871220e-03	3.647657667510e-05	1	true
0.316666666667      	GAMG	1.237718633860e-02	5.624617868860e-05	1	true
0.333333333333      	GAMG	1.435534687930e-02	7.002660071230e-05	1	true
0.35                	GAMG	1.686067442560e-02	8.297333793900e-05	1	true
0.366666666667      	GAMG	1.993481429330e-02	1.026255425440e-04	1	true
0.383333333333      	GAMG	2.348467313570e-02	1.241126399240e-04	1	true
0.4                 	GAMG	2.724251602040e-02	1.453741474890e-04	1	true
0.416666666667      	GAMG	3.076273446560e-02	1.653240156820e-04	1	true
0.433333333333      	GAMG	3.494091455240e-02	1.845100482620e-04	1	true
0.45                	GAMG	4.004588959160e-02	2.054287528240e-04	1	true
0.466666666667      	GAMG	4.686935571470e-02	2.255171742840e-04	1	true
0.483333333333      	GAMG	5.215152174140e-02	2.459414744080e-04	1	true
0.5                 	GAMG	5.908786820110e-02	2.684783202150e-04	1	true
0.516666666667      	GAMG	6.419690963370e-02	3.178519411880e-04	1	true
0.533333333333      	GAMG	7.163560503600e-02	3.444481947720e-04	1	true
0.55                	GAMG	7.907810274670e-02	3.958595979110e-04	1	true
0.566666666667      	GAMG	8.944186354780e-02	4.507307713460e-04	1	true
0.583333333333      	GAMG	9.553713973750e-02	4.865368809440e-04	1	true
0.6                 	GAMG	1.050942791080e-01	5.263517649340e-04	1	true
0.616666666667      	GAMG	1.138049239940e-01	5.490484668670e-04	1	true
0.633333333333      	GAMG	1.232478138230e-01	5.920385989480e-04	1	true
0.65                	GAMG	1.327368887670e-01	6.012956596160e-04	1	true
0.666666666667      	GAMG	1.424993534650e-01	6.663827483890e-04	1	true
0.683333333333      	GAMG	1.508174481090e-01	6.869997320900e-04	1	true
0.7                 	GAMG	1.600640223480e-01	7.497529131780e-04	1	true
0.716666666667      	GAMG	1.676929384660e-01	8.017454762860e-04	1	true
0.733333333333      	GAMG	1.764058949780e-01	8.439339222530e-04	1	true
0.75                	GAMG	1.841396618830e-01	9.071828800640e-04	1	true
0.766666666667      	GAMG	1.915039757260e-01	1.006586729400e-03	1	true
0.783333333333      	GAMG	1.968090029070e-01	9.337477696070e-04	1	true
0.8                 	GAMG	1.971296921180e-01	9.267356022640e-04	1	true
0.816666666667      	GAMG	1.957640925650e-01	9.165890367620e-04	1	true
0.833333333333      	GAMG	1.969752057600e-01	9.214366231560e-04	1	true
0.85                	GAMG	1.964500425990e-01	9.672202200540e-04	1	true
0.866666666667      	GAMG	1.925720029290e-01	8.772186997840e-04	1	true
0.883333333333      	GAMG	1.879374377860e-01	8.636564576200e-04	1	true
0.9                 	GAMG	1.800712238690e-01	8.101182607950e-04	1	true
0.916666666667      	GAMG	1.691879021730e-01	7.563740197790e-04	1	true
0.933333333333      	GAMG	1.549792660370e-01	6.935928711480e-04	1	true
0.95                	GAMG	1.397985549090e-01	6.263529685580e-04	1	true
0.966666666667      	GAMG	1.215668806170e-01	5.417610147330e-04	1	true
0.983333333333      	GAMG	1.064338778910e-01	4.753276623060e-04	1	true
1                   	GAMG	9.570290691870e-02	4.201275605330e-04	1	true
1.01666666667       	GAMG	9.206846354410e-02	4.296500397070e-04	1	true
1.03333333333       	GAMG	9.359233814010e-02	4.418725534970e-04	1	true
1.05                	GAMG	9.793274696490e-02	4.956625511400e-04	1	true
1.06666666667       	GAMG	1.042135173120e-01	5.091623638160e-04	1	true
1.08333333333       	GAMG	1.094485855330e-01	5.243543340660e-04	1	true
1.1                 	GAMG	1.082007889540e-01	4.083845700540e-04	1	true
1.1125              	GAMG	1.076854775950e-01	3.210871268220e-04	1	true
1.125               	GAMG	1.247089977950e-01	3.562642871660e-04	1	true
1.1375              	GAMG	1.412370609830e-01	4.338420110940e-04	1	true
1.15                	GAMG	1.512566145300e-01	5.231693007280e-04	1	true
1.16                	GAMG	1.247017605270e-01	5.729434331000e-04	1	true
1.17                	GAMG	1.236335677560e-01	6.994968584520e-04	1	true
1.18                	GAMG	1.432513457730e-01	8.055763541630e-04	1	true
1.19                	GAMG	1.643388905420e-01	9.068881865950e-04	1	true
1.2                 	GAMG	1.780632658410e-01	9.659394062300e-04	1	true
1.20833333333       	GAMG	1.591949047950e-01	7.448002318030e-04	1	true
1.21666666667       	GAMG	1.607639277240e-01	6.964600720360e-04	1	true
1.225               	GAMG	1.514244045300e-01	5.425651356970e-04	1	true
1.23333333333       	GAMG	1.526816975790e-01	4.679861073960e-04	1	true
1.24166666667       	GAMG	1.708108805920e-01	5.780078300250e-04	1	true
1.25                	GAMG	1.842703853170e-01	7.153414819050e-04	1	true
1.25833333333       	GAMG	1.940425255920e-01	8.388009496740e-04	1	true
1.26666666667       	GAMG	1.906539522700e-01	9.411648611590e-04	1	true
1.275               	GAMG	1.739160977880e-01	9.900938827380e-04	1	true
1.28333333333       	GAMG	1.627362596600e-01	9.317053708160e-04	1	true
1.29166666667       	GAMG	1.822088164480e-01	9.595063214500e-04	1	true
1.3                 	GAMG	2.016502095360e-01	9.817310058090e-04	1	true
1.30714285714       	GAMG	1.819316565790e-01	8.082949916300e-04	1	true
1.31428571429       	GAMG	1.797521073530e-01	7.386900193780e-04	1	true
1.32142857143       	GAMG	1.718496877580e-01	6.959195669640e-04	1	true
1.32857142857       	GAMG	1.520323751850e-01	5.485381809430e-04	1	true
1.33571428571       	GAMG	1.598401293580e-01	5.445146542310e-04	1	true
1.34285714286       	GAMG	1.773912464240e-01	6.570398883150e-04	1	true
1.35                	GAMG	1.915632580210e-01	8.418668425550e-04	1	true
1.35625             	GAMG	1.744854989110e-01	7.625071386540e-04	1	true
1.3625              	GAMG	1.696425724150e-01	7.577611370890e-04	1	true
1.36875             	GAMG	1.612162106650e-01	7.586351067210e-04	1	true
1.375               	GAMG	1.484209291770e-01	7.472874021360e-04	1	true
1.38125             	GAMG	1.312908078490e-01	6.949957399460e-04	1	true
1.3875              	GAMG	1.378699347930e-01	6.983521481620e-04	1	true
1.39375             	GAMG	1.480047875180e-01	7.145352339560e-04	1	true
1.4                 	GAMG	1.538457060700e-01	7.518259045300e-04	1	true
1.40555555556       	GAMG	1.408116372670e-01	6.795321296810e-04	1	true
1.41111111111       	GAMG	1.428456786630e-01	6.997116032800e-04	1	true
1.41666666667       	GAMG	1.464447530400e-01	6.985296874550e-04	1	true
1.42222222222       	GAMG	1.423737363280e-01	6.758018295990e-04	1	true
1.42777777778       	GAMG	1.330325185790e-01	5.806438046380e-04	1	true
1.43333333333       	GAMG	1.208130112190e-01	4.726902390180e-04	1	true
1.43888888889       	GAMG	1.119187502970e-01	3.552329939330e-04	1	true
1.44444444444       	GAMG	1.192642678640e-01	3.635229027140e-04	1	true
1.45                	GAMG	1.241522757980e-01	4.245754176430e-04	1	true
1.45555555556       	GAMG	1.293357019750e-01	4.868909363840e-04	1	true
1.46111111111       	GAMG	1.436204882370e-01	5.650612154250e-04	1	true
1.46666666667       	GAMG	1.482798880030e-01	5.944465752900e-04	1	true
1.47222222222       	GAMG	1.495773851110e-01	6.231466247750e-04	1	true
1.47777777778       	GAMG	1.564852872500e-01	6.717935972430e-04	1	true
1.48333333333       	GAMG	1.569491352240e-01	6.656761997610e-04	1	true
1.48888888889       	GAMG	1.539225204400e-01	7.300421404660e-04	1	true
1.49444444444       	GAMG	1.553408180970e-01	7.845473413970e-04	1	true
1.5                 	GAMG	1.502481994990e-01	7.637409260050e-04	1	true
1.505               	GAMG	1.318732738190e-01	6.865260955180e-04	1	true
1.51                	GAMG	1.261854389640e-01	6.214453769700e-04	1	true
1.515               	GAMG	1.187777039550e-01	6.125072097830e-04	1	true
1.52                	GAMG	1.159515005010e-01	5.956747570110e-04	1	true
1.525               	GAMG	1.141403277030e-01	5.722217461180e-04	1	true
1.53                	GAMG	1.144931703340e-01	5.579076970320e-04	1	true
1.535               	GAMG	1.153726282700e-01	5.480583724680e-04	1	true
1.54                	GAMG	1.169998350660e-01	5.608128845010e-04	1	true
1.545               	GAMG	1.167209820820e-01	5.555766748720e-04	1	true
1.55                	GAMG	1.183363135910e-01	5.392721724880e-04	1	true
1.55416666667       	GAMG	1.002172227050e-01	4.376653314510e-04	1	true
1.55833333333       	GAMG	1.010103304370e-01	4.584639099050e-04	1	true
1.5625              	GAMG	1.004634230930e-01	4.726297524620e-04	1	true
1.56666666667       	GAMG	9.961166979550e-02	4.473993692120e-04	1	true
1.57083333333       	GAMG	1.006526902160e-01	4.446483607510e-04	1	true
1.575               	GAMG	9.966095442390e-02	4.544168278170e-04	1	true
1.57916666667       	GAMG	1.003678471730e-01	4.743800160930e-04	1	true
1.58333333333       	GAMG	9.892869032370e-02	4.663074362320e-04	1	true
1.5875              	GAMG	1.005632858610e-01	4.705137743250e-04	1	true
1.59166666667       	GAMG	1.008440476000e-01	4.696406697410e-04	1	true
1.59583333333       	GAMG	1.006925317390e-01	4.856228924060e-04	1	true
1.6                 	GAMG	1.028360442850e-01	5.098256595760e-04	1	true
1.60454545455       	GAMG	1.122234614450e-01	5.492256897020e-04	1	true
1.6095959596        	GAMG	1.252874641150e-01	6.053410741580e-04	1	true
1.61464646465       	GAMG	1.251742642580e-01	6.102438082740e-04	1	true
1.6196969697        	GAMG	1.255862252760e-01	6.337198907080e-04	1	true
1.62575757576       	GAMG	1.459473952660e-01	7.310827696050e-04	1	true
1.63181818182       	GAMG	1.449298280260e-01	6.929613434810e-04	1	true
1.63787878788       	GAMG	1.446362801970e-01	6.927252972080e-04	1	true
1.64393939394       	GAMG	1.446470402800e-01	6.784368339030e-04	1	true
1.65                	GAMG	1.464845556500e-01	7.008175344440e-04	1	true
1.65555555556       	GAMG	1.387966718190e-01	6.345873582530e-04	1	true
1.66111111111       	GAMG	1.384385399540e-01	6.473066711320e-04	1	true
1.66666666667       	GAMG	1.396079513620e-01	6.250614816820e-04	1	true
1.67222222222       	GAMG	1.391738090550e-01	6.090039861120e-04	1	true
1.67777777778       	GAMG	1.386823454940e-01	6.568542885910e-04	1	true
1.68333333333       	GAMG	1.411690832220e-01	6.641784347860e-04	1	true
1.68888888889       	GAMG	1.381735785160e-01	6.522975293230e-04	1	true
1.69444444444       	GAMG	1.340572917930e-01	6.378112432000e-04	1	true
1.7                 	GAMG	1.265510536630e-01	6.230747323440e-04	1	true
1.70625             	GAMG	1.358179536920e-01	6.671994060010e-04	1	true
1.7125              	GAMG	1.309423001190e-01	6.567014641380e-04	1	true
1.71875             	GAMG	1.246717709510e-01	6.094250609320e-04	1	true
1.725               	GAMG	1.163573788950e-01	5.796246024000e-04	1	true
1.73125             	GAMG	1.229194421040e-01	6.102329510870e-04	1	true
1.7375              	GAMG	1.250532491920e-01	6.398066274670e-04	1	true
1.74375             	GAMG	1.272653033280e-01	6.458900632360e-04	1	true
1.75                	GAMG	1.339187471600e-01	6.967756020090e-04	1	true
1.75625             	GAMG	1.351530251000e-01	6.818830903510e-04	1	true
1.7625              	GAMG	1.311603936510e-01	6.515792882710e-04	1	true
1.76875             	GAMG	1.379647987320e-01	6.433437306830e-04	1	true
1.775               	GAMG	1.479532484200e-01	6.460242804260e-04	1	true
1.78125             	GAMG	1.499982204500e-01	7.199303699970e-04	1	true
1.7875              	GAMG	1.543909522780e-01	7.622021644750e-04	1	true
1.79375             	GAMG	1.423278160470e-01	8.057269540410e-04	1	true
1.8                 	GAMG	1.531257477920e-01	8.678307093830e-04	1	true
1.80625             	GAMG	1.473002412240e-01	7.941711865530e-04	1	true
1.8125              	GAMG	1.310873552690e-01	6.801442360440e-04	1	true
1.81875             	GAMG	1.561117325350e-01	5.480421932460e-04	1	true
1.825               	GAMG	1.648328149410e-01	5.864699696880e-04	1	true
1.83125             	GAMG	1.545328454610e-01	5.857903082680e-04	1	true
1.8375              	GAMG	1.364599623100e-01	7.229561632260e-04	1	true
1.84375             	GAMG	1.455302233420e-01	8.278658149600e-04	1	true
1.85                	GAMG	1.523062616290e-01	8.708699530160e-04	1	true
1.85555555556       	GAMG	1.444241818040e-01	7.171437882950e-04	1	true
1.86111111111       	GAMG	1.541612015340e-01	6.875835990800e-04	1	true
1.86666666667       	GAMG	1.623872156360e-01	6.790296709870e-04	1	true
1.87222222222       	GAMG	1.546541890040e-01	6.968371557350e-04	1	true
1.87777777778       	GAMG	1.602099823160e-01	7.709729728560e-04	1	true
1.88333333333       	GAMG	1.575141283430e-01	7.381949229950e-04	1	true
1.88888888889       	GAMG	1.486179043980e-01	6.472463531000e-04	1	true
1.89444444444       	GAMG	1.670784494320e-01	6.967594465940e-04	1	true
1.9                 	GAMG	1.817964328850e-01	7.015685783570e-04	1	true
1.905               	GAMG	1.689427996100e-01	6.730697388700e-04	1	true
1.91                	GAMG	1.675896542260e-01	7.468674533900e-04	1	true
1.915               	GAMG	1.682243747170e-01	8.064384249200e-04	1	true
1.919375            	GAMG	1.495598616520e-01	7.436855134810e-04	1	true
1.92375             	GAMG	1.462444886060e-01	7.848681072960e-04	1	true
1.928125            	GAMG	1.513404565770e-01	7.922309703700e-04	1	true
1.9325              	GAMG	1.600259711160e-01	8.277943856340e-04	1	true
1.936875            	GAMG	1.668492393730e-01	7.718811563470e-04	1	true
1.94125             	GAMG	1.719197002590e-01	7.895947105810e-04	1	true
1.945625            	GAMG	1.758494449820e-01	7.543447152320e-04	1	true
1.95                	GAMG	1.722021148520e-01	7.353289989360e-04	1	true
1.95416666667       	GAMG	1.520175406900e-01	7.557256790320e-04	1	true
1.95833333333       	GAMG	1.540724430520e-01	6.665091195460e-04	1	true
1.9625              	GAMG	1.673545987640e-01	7.496456807430e-04	1	true
1.96625             	GAMG	1.583372121870e-01	6.971906623130e-04	1	true
1.97                	GAMG	1.609589073710e-01	7.336911994500e-04	1	true
1.97375             	GAMG	1.568438980090e-01	7.311954228990e-04	1	true
1.9775              	GAMG	1.494036872670e-01	7.338991978130e-04	1	true
1.98125             	GAMG	1.427892060520e-01	6.935154409720e-04	1	true
1.985               	GAMG	1.353927778860e-01	6.812202852230e-04	1	true
1.98875             	GAMG	1.302908802320e-01	6.809401847260e-04	1	true
1.9925              	GAMG	1.355140075070e-01	6.806731567410e-04	1	true
1.99625             	GAMG	1.419608222100e-01	6.828517009080e-04	1	true
2                   	GAMG	1.454752457000e-01	6.852196930890e-04	1	true
2.00333333333       	GAMG	1.292869745210e-01	5.982353795010e-04	1	true
2.00666666667       	GAMG	1.284072795750e-01	6.567153075750e-04	1	true
2.01                	GAMG	1.280405614190e-01	6.349258115400e-04	1	true
2.01333333333       	GAMG	1.281763147540e-01	6.164042977220e-04	1	true
2.01666666667       	GAMG	1.258805700010e-01	6.287339352020e-04	1	true
2.02                	GAMG	1.228538439640e-01	5.707820081360e-04	1	true
2.02333333333       	GAMG	1.216085897710e-01	5.288274940750e-04	1	true
2.02666666667       	GAMG	1.275803936900e-01	6.802910079010e-04	1	true
2.03                	GAMG	1.323581123300e-01	6.116737815050e-04	1	true
2.03333333333       	GAMG	1.331338451820e-01	6.230462328460e-04	1	true
2.03666666667       	GAMG	1.325837888710e-01	6.313435873600e-04	1	true
2.04                	GAMG	1.349289631490e-01	6.414803382870e-04	1	true
2.04333333333       	GAMG	1.342979591790e-01	6.202448005350e-04	1	true
2.04666666667       	GAMG	1.323957091570e-01	6.967393883250e-04	1	true
2.05                	GAMG	1.327834522600e-01	6.427612319990e-04	1	true
2.05294117647       	GAMG	1.130546017270e-01	5.528897998890e-04	1	true
2.05588235294       	GAMG	1.094067728550e-01	5.422052522230e-04	1	true
2.05863970588       	GAMG	1.074220145400e-01	5.363957154450e-04	1	true
2.06139705882       	GAMG	1.115874334010e-01	5.206398337180e-04	1	true
2.06415441176       	GAMG	1.154711101460e-01	5.488075798230e-04	1	true
2.06691176471       	GAMG	1.156305564470e-01	5.744782043750e-04	1	true
2.06966911765       	GAMG	1.166463508370e-01	5.507673736540e-04	1	true
2.07242647059       	GAMG	1.169798016540e-01	5.573620109360e-04	1	true
2.07518382353       	GAMG	1.157126215640e-01	5.690133038450e-04	1	true
2.07794117647       	GAMG	1.157634011530e-01	5.415681717670e-04	1	true
2.08069852941       	GAMG	1.145046180370e-01	5.649699365160e-04	1	true
2.08311121324       	GAMG	9.880484712550e-02	4.868184049940e-04	1	true
2.08552389706       	GAMG	9.700115809210e-02	4.992765006930e-04	1	true
2.08793658088       	GAMG	9.486670992820e-02	4.509563709400e-04	1	true
2.09034926471       	GAMG	9.629078744050e-02	4.376683509090e-04	1	true
2.09276194853       	GAMG	9.946459533060e-02	4.731325967340e-04	1	true
2.09517463235       	GAMG	1.011569690020e-01	4.580355006890e-04	1	true
2.09758731618       	GAMG	1.047338705540e-01	4.816878206740e-04	1	true
2.1                 	GAMG	1.058491157380e-01	5.061643383420e-04	1	true
2.10238095238       	GAMG	1.046207954570e-01	5.298470528610e-04	1	true
2.10476190476       	GAMG	1.068345000840e-01	5.226139495590e-04	1	true
2.10714285714       	GAMG	1.074522848860e-01	5.128478006180e-04	1	true
2.10939849624       	GAMG	9.959831823550e-02	4.705546461780e-04	1	true
2.11178681999       	GAMG	1.027833298490e-01	4.931711138720e-04	1	true
2.11403465411       	GAMG	9.489431217410e-02	4.448815039950e-04	1	true
2.11628248823       	GAMG	9.473100251380e-02	4.340952866790e-04	1	true
2.11853032235       	GAMG	9.362023505490e-02	4.375062150570e-04	1	true
2.12077815646       	GAMG	9.203264843930e-02	4.270942369170e-04	1	true
2.12302599058       	GAMG	9.025998663310e-02	4.254524711770e-04	1	true
2.1252738247        	GAMG	9.180952393030e-02	4.376652655120e-04	1	true
2.12752165882       	GAMG	9.350825272830e-02	4.516132464760e-04	1	true
2.12976949294       	GAMG	9.634009227000e-02	4.780411533880e-04	1	true
2.13179254364       	GAMG	8.864668656580e-02	4.210116182540e-04	1	true
2.13381559435       	GAMG	8.995264847880e-02	4.290490870350e-04	1	true
2.13583864506       	GAMG	9.129085288610e-02	4.230846048050e-04	1	true
2.13786169576       	GAMG	9.273460692030e-02	4.384934051870e-04	1	true
2.13988474647       	GAMG	9.280497141790e-02	4.513805324240e-04	1	true
2.14190779717       	GAMG	9.187314312890e-02	4.370377847200e-04	1	true
2.14393084788       	GAMG	9.181068922720e-02	4.393678777660e-04	1	true
2.14595389859       	GAMG	8.946076844570e-02	4.417314404990e-04	1	true
2.14797694929       	GAMG	8.658233645850e-02	4.161136296540e-04	1	true
2.15                	GAMG	8.592780669850e-02	4.243269245050e-04	1	true
2.152               	GAMG	8.375717907390e-02	4.066307466930e-04	1	true
2.15392             	GAMG	7.959822236780e-02	3.786660982930e-04	1	true
2.15592347826       	GAMG	8.176880530160e-02	4.026943627970e-04	1	true
2.15783984877       	GAMG	7.638418339250e-02	3.684775402020e-04	1	true
2.15975621928       	GAMG	7.502864811250e-02	3.599195190390e-04	1	true
2.16167258979       	GAMG	7.742336794560e-02	3.592392817530e-04	1	true
2.1635889603        	GAMG	7.913157714260e-02	3.753777893940e-04	1	true
2.16550533081       	GAMG	8.070090000720e-02	3.740488650050e-04	1	true
2.16732083972       	GAMG	7.775726252280e-02	3.593719723030e-04	1	true
2.16913634862       	GAMG	7.942354314280e-02	3.712761090090e-04	1	true
2.17106532683       	GAMG	8.508319957120e-02	3.988815764750e-04	1	true
2.17287374391       	GAMG	8.127948046180e-02	3.878278823020e-04	1	true
2.17468216098       	GAMG	8.252971720530e-02	3.978001743090e-04	1	true
2.17649057805       	GAMG	8.207819117380e-02	3.896829384010e-04	1	true
2.17829899512       	GAMG	8.307053962040e-02	4.017773271440e-04	1	true
2.1801074122        	GAMG	8.220799293410e-02	4.092010520320e-04	1	true
2.18191582927       	GAMG	8.119009351070e-02	4.029971564210e-04	1	true
2.18372424634       	GAMG	8.001162924510e-02	3.753438893530e-04	1	true
2.18553266342       	GAMG	7.952748317740e-02	3.979403809450e-04	1	true
2.18734108049       	GAMG	7.688439202120e-02	3.661557513050e-04	1	true
2.18914949756       	GAMG	7.580933179450e-02	3.735856160390e-04	1	true
2.19095791464       	GAMG	7.429568789690e-02	3.383025119160e-04	1	true
2.19276633171       	GAMG	7.366992599050e-02	3.489384466350e-04	1	true
2.19457474878       	GAMG	7.262396197970e-02	3.383887584930e-04	1	true
2.19638316585       	GAMG	6.967521260050e-02	3.299278545440e-04	1	true
2.19819158293       	GAMG	7.076430413290e-02	3.411886763520e-04	1	true
2.2                 	GAMG	7.184349788010e-02	3.409988964550e-04	1	true
2.20166666667       	GAMG	6.778882675000e-02	3.110879099800e-04	1	true
2.20339285714       	GAMG	7.055243735370e-02	3.278608292320e-04	1	true
2.20505739796       	GAMG	6.941840266220e-02	3.020703450010e-04	1	true
2.20672193878       	GAMG	7.050320726460e-02	3.194295247920e-04	1	true
2.20838647959       	GAMG	7.194412896220e-02	3.581920155240e-04	1	true
2.21005102041       	GAMG	7.237216112830e-02	3.402024946040e-04	1	true
2.21171556122       	GAMG	7.344934642450e-02	3.405221862860e-04	1	true
2.21338010204       	GAMG	7.329856739040e-02	3.531875058200e-04	1	true
2.21504464286       	GAMG	7.484372963760e-02	3.673641397860e-04	1	true
2.21670918367       	GAMG	7.541501962590e-02	3.385302428740e-04	1	true
2.21829446064       	GAMG	7.136011359930e-02	3.428917816070e-04	1	true
2.21987973761       	GAMG	7.130891916880e-02	3.671960893400e-04	1	true
2.22146501458       	GAMG	7.066809746600e-02	3.218916868220e-04	1	true
2.22314354313       	GAMG	7.424931660910e-02	3.448949824660e-04	1	true
2.22472333471       	GAMG	6.956272315500e-02	3.095368052370e-04	1	true
2.22630312629       	GAMG	6.820190713670e-02	3.128565876400e-04	1	true
2.22788291787       	GAMG	6.613951786090e-02	3.083673345290e-04	1	true
2.22946270945       	GAMG	6.515748573310e-02	2.998423592400e-04	1	true
2.23104250103       	GAMG	6.432170239240e-02	2.941058331380e-04	1	true
2.23262229261       	GAMG	6.317209302020e-02	2.907376350960e-04	1	true
2.2342020842        	GAMG	6.193751422610e-02	2.821530744620e-04	1	true
2.23578187578       	GAMG	5.917622106790e-02	2.887300953080e-04	1	true
2.23736166736       	GAMG	5.885972176970e-02	2.725931030500e-04	1	true
2.23894145894       	GAMG	5.774157621860e-02	2.627181558060e-04	1	true
2.24052125052       	GAMG	5.787937449470e-02	2.638836125790e-04	1	true
2.2421010421        	GAMG	5.874906119020e-02	2.651448810360e-04	1	true
2.24368083368       	GAMG	5.845402796570e-02	2.615465574600e-04	1	true
2.24526062526       	GAMG	6.005270079910e-02	2.696112479320e-04	1	true
2.24684041684       	GAMG	6.007906088220e-02	2.672598056380e-04	1	true
2.24842020842       	GAMG	6.079999915820e-02	2.855258700820e-04	1	true
2.25                	GAMG	6.131456569660e-02	2.862848967840e-04	1	true
2.25147058824       	GAMG	5.771039709410e-02	2.620838339370e-04	1	true
2.25298713235       	GAMG	6.015560905300e-02	3.004067006000e-04	1	true
2.25450367647       	GAMG	6.018736095510e-02	2.895598553390e-04	1	true
2.25597129981       	GAMG	5.837555451090e-02	2.925098979230e-04	1	true
2.25743892315       	GAMG	5.846431098580e-02	2.819596488860e-04	1	true
2.25890654649       	GAMG	5.919238338130e-02	2.878520546200e-04	1	true
2.26037416983       	GAMG	5.920600080250e-02	2.820348789290e-04	1	true
2.26184179317       	GAMG	5.973487057350e-02	2.951017151990e-04	1	true
2.26330941651       	GAMG	6.016936144110e-02	3.098863835430e-04	1	true
2.26477703985       	GAMG	5.931458644590e-02	3.035515896560e-04	1	true
2.26624466319       	GAMG	6.019729448290e-02	3.007565964380e-04	1	true
2.26765113556       	GAMG	5.822947026280e-02	3.057320940680e-04	1	true
2.26905760792       	GAMG	5.751785632920e-02	2.861829589650e-04	1	true
2.27053105516       	GAMG	6.079800559240e-02	2.971514014870e-04	1	true
2.27200450241       	GAMG	6.069769607740e-02	3.073467509820e-04	1	true
2.27340427729       	GAMG	5.725389243340e-02	2.901644679220e-04	1	true
2.27480405217       	GAMG	5.663721473540e-02	2.859004983160e-04	1	true
2.27620382704       	GAMG	5.675469719070e-02	2.726920416310e-04	1	true
2.27769108785       	GAMG	5.902064959990e-02	2.973126849830e-04	1	true
2.27908539486       	GAMG	5.534160550160e-02	2.751446805160e-04	1	true
2.28047970187       	GAMG	5.469885686950e-02	2.649088978740e-04	1	true
2.28187400888       	GAMG	5.299802678440e-02	2.483341651360e-04	1	true
2.28326831589       	GAMG	5.318868345980e-02	2.555289335410e-04	1	true
2.2846626229        	GAMG	5.277259197700e-02	2.414579372450e-04	1	true
2.28605692991       	GAMG	5.194220568770e-02	2.523624695440e-04	1	true
2.28745123692       	GAMG	5.141336969170e-02	2.482257988740e-04	1	true
2.28884554393       	GAMG	5.082412081910e-02	2.435389550910e-04	1	true
2.29023985094       	GAMG	5.013064127760e-02	2.250671902730e-04	1	true
2.29163415795       	GAMG	5.058384428530e-02	2.323187982190e-04	1	true
2.29302846495       	GAMG	5.006066941670e-02	2.418968482760e-04	1	true
2.29442277196       	GAMG	4.942286623210e-02	2.263209429750e-04	1	true
2.29581707897       	GAMG	4.925700400180e-02	2.348856916860e-04	1	true
2.29721138598       	GAMG	4.898888516550e-02	2.288703673040e-04	1	true
2.29860569299       	GAMG	4.856919853090e-02	2.315338908560e-04	1	true
2.3                 	GAMG	4.754233318210e-02	2.243992479410e-04	1	true
2.30135135135       	GAMG	4.535270357390e-02	2.084790303430e-04	1	true
2.3027027027        	GAMG	4.560038673940e-02	2.112553798770e-04	1	true
2.30405405405       	GAMG	4.536925106430e-02	2.103728182580e-04	1	true
2.30540540541       	GAMG	4.547032419010e-02	2.101463340900e-04	1	true
2.30675675676       	GAMG	4.576332669070e-02	2.057517629320e-04	1	true
2.30806715807       	GAMG	4.461254432270e-02	2.006360433000e-04	1	true
2.30937755938       	GAMG	4.492543147010e-02	2.000287001240e-04	1	true
2.31068796069       	GAMG	4.518140003800e-02	2.266617108180e-04	1	true
2.31204354825       	GAMG	4.729831949440e-02	2.403994438690e-04	1	true
2.31335239141       	GAMG	4.557288235700e-02	2.207308049260e-04	1	true
2.31466123458       	GAMG	4.601063591690e-02	2.098065459600e-04	1	true
2.31597007774       	GAMG	4.687864509620e-02	2.186113371570e-04	1	true
2.31733127463       	GAMG	4.852185450180e-02	2.181681096380e-04	1	true
2.31863802365       	GAMG	4.691637823190e-02	2.150339973170e-04	1	true
2.31994477266       	GAMG	4.740120525480e-02	2.553521055790e-04	1	true
2.32125152168       	GAMG	4.797171331990e-02	2.500213684790e-04	1	true
2.32255827069       	GAMG	4.750268778590e-02	2.321224741340e-04	1	true
2.32386501971       	GAMG	4.764345135770e-02	2.024622920910e-04	1	true
2.32510954258       	GAMG	4.575946957030e-02	2.231615924440e-04	1	true
2.32635406545       	GAMG	4.535671765610e-02	2.536930081310e-04	1	true
2.32759858832       	GAMG	4.465646621580e-02	2.382373958690e-04	1	true
2.32891631842       	GAMG	4.698583923910e-02	2.353442431410e-04	1	true
2.33015653498       	GAMG	4.426476676610e-02	1.994880583350e-04	1	true
2.33139675155       	GAMG	4.364992977240e-02	2.016567118770e-04	1	true
2.33263696811       	GAMG	4.274615809280e-02	2.135831939230e-04	1	true
2.33387718467       	GAMG	4.239773238390e-02	2.201661746260e-04	1	true
2.33511740124       	GAMG	4.209260952730e-02	2.122691473600e-04	1	true
2.33626221653       	GAMG	3.850868312070e-02	1.899867656270e-04	1	true
2.33740703182       	GAMG	3.809139082150e-02	1.847494522460e-04	1	true
2.3385518471        	GAMG	3.788946383100e-02	1.871387828750e-04	1	true
2.33969666239       	GAMG	3.784357887430e-02	1.883822353350e-04	1	true