# Solver information
# Time        	alpha.water_solver	alpha.water_initial	alpha.water_final	alpha.water_iters	alpha.water_converged	p_rgh_solver  	p_rgh_initial 	p_rgh_final   	p_rgh_iters   	p_rgh_converged
0.00120482    	smoothSolver	0.000000e+00	0.000000e+00	0	true	DICPCG	1.000000e+00	4.871880e-02	1	true
0.00265769    	smoothSolver	1.224630e-04	2.902950e-15	2	true	DICPCG	1.150310e-03	5.489990e-05	17	true
0.00439595    	smoothSolver	8.320750e-05	2.619380e-09	1	true	DICPCG	7.272480e-04	3.397400e-05	9	true
0.00647429    	smoothSolver	9.462060e-05	7.673810e-10	1	true	DICPCG	6.680520e-04	2.490180e-05	3	true
0.0089355     	smoothSolver	1.419590e-04	1.875030e-09	1	true	DICPCG	9.207610e-04	2.959800e-05	2	true
0.0118731     	smoothSolver	2.130270e-04	6.529560e-09	1	true	DICPCG	1.305210e-03	3.469440e-05	2	true
0.0153981     	smoothSolver	3.157570e-04	5.068070e-13	2	true	DICPCG	1.870510e-03	4.384120e-05	2	true
0.0196282     	smoothSolver	4.622660e-04	4.363320e-12	2	true	DICPCG	2.657440e-03	5.569410e-05	2	true
0.0246515     	smoothSolver	6.638800e-04	3.104510e-11	2	true	DICPCG	3.730080e-03	6.886570e-05	2	true
0.0304475     	smoothSolver	9.182550e-04	1.680880e-10	2	true	DICPCG	5.011070e-03	2.401360e-04	1	true
0.0374028     	smoothSolver	1.305440e-03	9.433540e-10	2	true	DICPCG	6.873730e-03	3.013170e-04	1	true
0.0452274     	smoothSolver	1.733740e-03	3.393110e-09	2	true	DICPCG	8.888230e-03	3.597320e-04	1	true
0.0543562     	smoothSolver	2.351690e-03	2.682440e-11	3	true	DICPCG	1.173530e-02	4.249220e-04	1	true
0.0657671     	smoothSolver	3.402220e-03	2.305780e-10	3	true	DICPCG	1.638670e-02	4.823940e-04	1	true
0.0771781     	smoothSolver	3.968640e-03	5.856140e-10	3	true	DICPCG	1.905010e-02	4.912990e-04	1	true
0.088589      	smoothSolver	4.473460e-03	1.257500e-09	3	true	DICPCG	2.129730e-02	4.817000e-04	1	true
0.1           	smoothSolver	4.910140e-03	1.527510e-09	3	true	DICPCG	2.298830e-02	4.665670e-04	1	true
0.1125        	smoothSolver	5.818480e-03	2.913170e-09	3	true	DICPCG	2.592510e-02	4.567260e-04	1	true
0.125         	smoothSolver	6.225850e-03	3.318000e-09	3	true	DICPCG	2.615890e-02	4.397830e-04	1	true
0.135714      	smoothSolver	5.684850e-03	1.522170e-09	3	true	DICPCG	2.240240e-02	4.340250e-04	1	true
0.144898      	smoothSolver	5.148650e-03	6.943500e-10	3	true	DICPCG	2.028980e-02	4.530790e-04	1	true
0.154082      	smoothSolver	5.341590e-03	9.186060e-10	3	true	DICPCG	2.097500e-02	4.294790e-04	1	true
0.163265      	smoothSolver	5.540190e-03	1.017070e-09	3	true	DICPCG	2.208040e-02	5.172310e-04	1	true
0.170612      	smoothSolver	4.603850e-03	2.633680e-10	3	true	DICPCG	1.790560e-02	4.312530e-04	1	true
0.177959      	smoothSolver	4.739060e-03	3.586720e-10	3	true	DICPCG	1.811610e-02	5.113090e-04	1	true
0.185306      	smoothSolver	4.831730e-03	2.866090e-10	3	true	DICPCG	1.709640e-02	5.101420e-04	1	true
0.192653      	smoothSolver	5.042250e-03	3.665300e-10	3	true	DICPCG	1.872480e-02	5.312650e-04	1	true
0.2           	smoothSolver	5.147010e-03	4.677040e-10	3	true	DICPCG	1.836380e-02	5.535120e-04	1	true
0.206667      	smoothSolver	4.698450e-03	1.934880e-10	3	true	DICPCG	1.672840e-02	5.230880e-04	1	true
0.212889      	smoothSolver	4.455580e-03	1.582170e-10	3	true	DICPCG	1.625660e-02	4.604780e-04	1	true
0.219111      	smoothSolver	4.509670e-03	2.313840e-10	3	true	DICPCG	1.599810e-02	4.734540e-04	1	true
0.224889      	smoothSolver	4.212860e-03	1.806220e-10	3	true	DICPCG	1.508390e-02	4.866660e-04	1	true
0.230667      	smoothSolver	4.272070e-03	1.892080e-10	3	true	DICPCG	1.514940e-02	5.187510e-04	1	true
0.236444      	smoothSolver	4.314570e-03	3.007110e-10	3	true	DICPCG	1.524290e-02	4.800700e-04	1	true
0.241741      	smoothSolver	3.940170e-03	2.883590e-10	3	true	DICPCG	1.434280e-02	4.296400e-04	1	true
0.247037      	smoothSolver	3.944650e-03	4.309420e-10	3	true	DICPCG	1.428740e-02	4.475390e-04	1	true
0.252333      	smoothSolver	4.006010e-03	7.039670e-10	3	true	DICPCG	1.436570e-02	4.782530e-04	1	true
0.2571        	smoothSolver	3.643780e-03	6.595950e-10	3	true	DICPCG	1.306770e-02	4.598770e-04	1	true
0.261867      	smoothSolver	3.647140e-03	1.243660e-09	3	true	DICPCG	1.331480e-02	4.363930e-04	1	true
0.266633      	smoothSolver	3.635860e-03	2.084690e-09	3	true	DICPCG	1.354670e-02	4.563720e-04	1	true
0.2714        	smoothSolver	3.633570e-03	3.637590e-09	3	true	DICPCG	1.353120e-02	4.654830e-04	1	true
0.275486      	smoothSolver	3.123870e-03	2.648570e-09	3	true	DICPCG	1.193640e-02	4.197380e-04	1	true
0.279571      	smoothSolver	3.120540e-03	4.603410e-09	3	true	DICPCG	1.179130e-02	3.896120e-04	1	true
0.283657      	smoothSolver	3.094160e-03	7.515260e-09	3	true	DICPCG	1.192420e-02	3.937610e-04	1	true
0.287743      	smoothSolver	3.071740e-03	3.059960e-10	4	true	DICPCG	1.202680e-02	4.033010e-04	1	true
0.291829      	smoothSolver	3.074160e-03	4.227340e-10	4	true	DICPCG	1.220940e-02	3.890310e-04	1	true
0.295914      	smoothSolver	3.074900e-03	5.583920e-10	4	true	DICPCG	1.225720e-02	4.093650e-04	1	true
0.3           	smoothSolver	3.091760e-03	7.091540e-10	4	true	DICPCG	1.235620e-02	4.243630e-04	1	true
0.303448      	smoothSolver	2.611850e-03	7.536820e-09	3	true	DICPCG	1.086140e-02	3.831510e-04	1	true
0.306778      	smoothSolver	2.523140e-03	6.287720e-09	3	true	DICPCG	1.068080e-02	3.861180e-04	1	true
0.310107      	smoothSolver	2.531520e-03	6.848080e-09	3	true	DICPCG	1.055720e-02	3.783390e-04	1	true
0.313317      	smoothSolver	2.438980e-03	6.462410e-09	3	true	DICPCG	1.045000e-02	3.868260e-04	1	true
0.316413      	smoothSolver	2.344250e-03	6.488760e-09	3	true	DICPCG	9.978060e-03	3.700400e-04	1	true
0.319399      	smoothSolver	2.244300e-03	6.608140e-09	3	true	DICPCG	9.615020e-03	3.519240e-04	1	true
0.322384      	smoothSolver	2.234900e-03	7.739830e-09	3	true	DICPCG	9.862500e-03	3.386810e-04	1	true
0.325258      	smoothSolver	2.145250e-03	6.953880e-09	3	true	DICPCG	9.540660e-03	3.307270e-04	1	true
0.328027      	smoothSolver	2.064290e-03	6.087140e-09	3	true	DICPCG	9.247970e-03	2.988600e-04	1	true
0.330795      	smoothSolver	2.059500e-03	6.274330e-09	3	true	DICPCG	9.340490e-03	3.077750e-04	1	true
0.333457      	smoothSolver	1.976780e-03	5.018810e-09	3	true	DICPCG	9.072230e-03	3.059420e-04	1	true
0.336016      	smoothSolver	1.894500e-03	4.088990e-09	3	true	DICPCG	8.840550e-03	3.070920e-04	1	true
0.338575      	smoothSolver	1.887090e-03	4.360470e-09	3	true	DICPCG	8.918420e-03	3.199570e-04	1	true
0.341032      	smoothSolver	1.804730e-03	3.767380e-09	3	true	DICPCG	8.655100e-03	3.250980e-04	1	true
0.343391      	smoothSolver	1.730220e-03	3.260140e-09	3	true	DICPCG	8.360260e-03	3.264550e-04	1	true
0.34575       	smoothSolver	1.732230e-03	3.519830e-09	3	true	DICPCG	8.360070e-03	3.338550e-04	1	true
0.34801       	smoothSolver	1.660730e-03	2.867790e-09	3	true	DICPCG	8.048620e-03	3.357790e-04	1	true
0.350271      	smoothSolver	1.659680e-03	2.851970e-09	3	true	DICPCG	7.993300e-03	3.156790e-04	1	true
0.352433      	smoothSolver	1.584420e-03	2.052400e-09	3	true	DICPCG	7.686680e-03	2.683810e-04	1	true
0.354595      	smoothSolver	1.578380e-03	1.849310e-09	3	true	DICPCG	7.719720e-03	2.642380e-04	1	true
0.356659      	smoothSolver	1.500710e-03	1.257180e-09	3	true	DICPCG	7.440220e-03	2.556490e-04	1	true
0.358629      	smoothSolver	1.426520e-03	8.964570e-10	3	true	DICPCG	7.189390e-03	2.546290e-04	1	true
0.360599      	smoothSolver	1.421320e-03	9.132600e-10	3	true	DICPCG	7.226070e-03	2.630030e-04	1	true
0.362475      	smoothSolver	1.349100e-03	7.176750e-10	3	true	DICPCG	6.926580e-03	2.616360e-04	1	true
0.364351      	smoothSolver	1.345950e-03	7.800510e-10	3	true	DICPCG	6.948340e-03	2.725970e-04	1	true
0.366134      	smoothSolver	1.275490e-03	6.058730e-10	3	true	DICPCG	6.632070e-03	2.689710e-04	1	true
0.367916      	smoothSolver	1.274190e-03	6.170410e-10	3	true	DICPCG	6.650630e-03	2.764090e-04	1	true
0.369605      	smoothSolver	1.206450e-03	4.268360e-10	3	true	DICPCG	6.334630e-03	2.680120e-04	1	true
0.371293      	smoothSolver	1.205480e-03	3.977230e-10	3	true	DICPCG	6.349220e-03	2.639900e-04	1	true
0.372982      	smoothSolver	1.204040e-03	3.694710e-10	3	true	DICPCG	6.365190e-03	2.614100e-04	1	true
0.374571      	smoothSolver	1.131040e-03	2.411740e-10	3	true	DICPCG	6.005680e-03	2.474320e-04	1	true
0.376161      	smoothSolver	1.128840e-03	2.484030e-10	3	true	DICPCG	6.006600e-03	2.513570e-04	1	true
0.377651      	smoothSolver	1.055820e-03	1.783330e-10	3	true	DICPCG	5.623840e-03	2.451770e-04	1	true
0.379141      	smoothSolver	1.053590e-03	1.976630e-10	3	true	DICPCG	5.680830e-03	2.281810e-04	1	true
0.380631      	smoothSolver	1.053260e-03	2.228750e-10	3	true	DICPCG	5.664020e-03	2.367270e-04	1	true
0.382014      	smoothSolver	9.763870e-04	1.584620e-10	3	true	DICPCG	5.254900e-03	2.342910e-04	1	true
0.383398      	smoothSolver	9.744060e-04	1.793880e-10	3	true	DICPCG	5.242300e-03	2.445070e-04	1	true
0.384781      	smoothSolver	9.728220e-04	1.975940e-10	3	true	DICPCG	5.204620e-03	2.347070e-04	1	true
0.386049      	smoothSolver	8.894890e-04	9.853230e-09	2	true	DICPCG	4.868560e-03	2.331980e-04	1	true
0.387318      	smoothSolver	8.872340e-04	9.772900e-09	2	true	DICPCG	4.871520e-03	2.380020e-04	1	true
0.388586      	smoothSolver	8.859570e-04	9.522990e-09	2	true	DICPCG	4.893520e-03	2.386300e-04	1	true
0.389854      	smoothSolver	8.843170e-04	9.226700e-09	2	true	DICPCG	4.907630e-03	2.396700e-04	1	true
0.391122      	smoothSolver	8.816680e-04	8.979360e-09	2	true	DICPCG	4.912770e-03	2.411620e-04	1	true
0.392232      	smoothSolver	7.698980e-04	4.693480e-09	2	true	DICPCG	4.315480e-03	8.040730e-05	2	true
0.393342      	smoothSolver	7.691560e-04	4.756010e-09	2	true	DICPCG	4.227210e-03	7.876420e-05	2	true
0.394451      	smoothSolver	7.689060e-04	4.801560e-09	2	true	DICPCG	4.241800e-03	1.960600e-04	1	true
0.395561      	smoothSolver	7.684020e-04	4.852170e-09	2	true	DICPCG	4.251660e-03	1.940130e-04	1	true
0.396671      	smoothSolver	7.685100e-04	4.984580e-09	2	true	DICPCG	4.281670e-03	1.925830e-04	1	true
0.397781      	smoothSolver	7.685540e-04	5.202500e-09	2	true	DICPCG	4.288890e-03	1.955940e-04	1	true
0.39889       	smoothSolver	7.675500e-04	5.523640e-09	2	true	DICPCG	4.293740e-03	2.031390e-04	1	true
0.4           	smoothSolver	7.662060e-04	5.902600e-09	2	true	DICPCG	4.265080e-03	2.057440e-04	1	true
0.401         	smoothSolver	6.883590e-04	3.811550e-09	2	true	DICPCG	3.901740e-03	1.929320e-04	1	true
0.40198       	smoothSolver	6.728830e-04	3.747760e-09	2	true	DICPCG	3.811660e-03	7.094720e-05	2	true
0.402951      	smoothSolver	6.645860e-04	3.814300e-09	2	true	DICPCG	3.769300e-03	7.071520e-05	2	true
0.403902      	smoothSolver	6.501220e-04	3.674670e-09	2	true	DICPCG	3.725250e-03	8.673720e-05	2	true
0.404835      	smoothSolver	6.366350e-04	3.517800e-09	2	true	DICPCG	3.607220e-03	7.364040e-05	2	true
0.40575       	smoothSolver	6.239700e-04	3.383130e-09	2	true	DICPCG	3.584470e-03	6.990000e-05	2	true
0.406648      	smoothSolver	6.117730e-04	3.301870e-09	2	true	DICPCG	3.530580e-03	6.995960e-05	2	true
0.407528      	smoothSolver	5.992890e-04	3.234420e-09	2	true	DICPCG	3.491470e-03	7.301060e-05	2	true
0.408393      	smoothSolver	5.868920e-04	3.200140e-09	2	true	DICPCG	3.445410e-03	7.167150e-05	2	true
0.409241      	smoothSolver	5.747910e-04	3.206020e-09	2	true	DICPCG	3.374540e-03	7.042380e-05	2	true
0.410081      	smoothSolver	5.682320e-04	3.368050e-09	2	true	DICPCG	3.327180e-03	6.873580e-05	2	true
0.410906      	smoothSolver	5.566290e-04	3.341440e-09	2	true	DICPCG	3.247710e-03	6.570500e-05	2	true
0.411716      	smoothSolver	5.453260e-04	3.248820e-09	2	true	DICPCG	3.186160e-03	6.353090e-05	2	true
0.412512      	smoothSolver	5.344510e-04	3.061120e-09	2	true	DICPCG	3.160720e-03	6.757610e-05	2	true
0.413293      	smoothSolver	5.238900e-04	2.803650e-09	2	true	DICPCG	3.115580e-03	6.139120e-05	2	true
0.414067      	smoothSolver	5.186770e-04	2.631140e-09	2	true	DICPCG	3.086240e-03	6.095550e-05	2	true
0.414827      	smoothSolver	5.091330e-04	2.335260e-09	2	true	DICPCG	3.045080e-03	6.056080e-05	2	true
0.415581      	smoothSolver	5.038940e-04	2.191790e-09	2	true	DICPCG	3.035480e-03	5.946960e-05	2	true
0.416322      	smoothSolver	4.943940e-04	2.015480e-09	2	true	DICPCG	3.000120e-03	6.029260e-05	2	true
0.417056      	smoothSolver	4.893970e-04	1.975270e-09	2	true	DICPCG	2.992870e-03	6.162730e-05	2	true
0.417783      	smoothSolver	4.844690e-04	1.970280e-09	2	true	DICPCG	2.979450e-03	6.225480e-05	2	true
0.418504      	smoothSolver	4.798140e-04	2.017910e-09	2	true	DICPCG	2.960770e-03	6.610830e-05	2	true
0.419226      	smoothSolver	4.791340e-04	2.191540e-09	2	true	DICPCG	2.959730e-03	7.109170e-05	2	true
0.41994       	smoothSolver	4.741310e-04	2.295150e-09	2	true	DICPCG	2.926710e-03	6.689780e-05	2	true
0.420662      	smoothSolver	4.776000e-04	2.637140e-09	2	true	DICPCG	2.986180e-03	7.731340e-05	2	true
0.42139       	smoothSolver	4.811200e-04	3.033040e-09	2	true	DICPCG	3.023430e-03	7.862480e-05	2	true
0.422131      	smoothSolver	4.894580e-04	3.629580e-09	2	true	DICPCG	3.089750e-03	7.663930e-05	2	true
0.422895      	smoothSolver	5.037760e-04	4.554690e-09	2	true	DICPCG	3.175480e-03	9.086600e-05	2	true
0.423643      	smoothSolver	4.936500e-04	4.510950e-09	2	true	DICPCG	3.098300e-03	9.594750e-05	2	true
0.424384      	smoothSolver	4.882680e-04	4.750900e-09	2	true	DICPCG	3.052770e-03	9.131440e-05	2	true
0.425119      	smoothSolver	4.827820e-04	5.049530e-09	2	true	DICPCG	3.021660e-03	9.793990e-05	2	true
0.425846      	smoothSolver	4.772670e-04	5.443310e-09	2	true	DICPCG	2.986880e-03	1.033240e-04	2	true
0.426566      	smoothSolver	4.719540e-04	5.972350e-09	2	true	DICPCG	2.957890e-03	1.049080e-04	2	true
0.427286      	smoothSolver	4.712760e-04	6.971900e-09	2	true	DICPCG	2.986330e-03	6.006660e-05	3	true
0.427998      	smoothSolver	4.658580e-04	8.014790e-09	2	true	DICPCG	2.976800e-03	5.917490e-05	3	true
0.428697      	smoothSolver	4.559380e-04	8.765900e-09	2	true	DICPCG	2.924220e-03	5.350170e-05	3	true
0.42939       	smoothSolver	4.506270e-04	9.688800e-09	2	true	DICPCG	2.956340e-03	5.998510e-05	3	true
0.430069      	smoothSolver	4.411360e-04	9.840350e-09	2	true	DICPCG	2.894240e-03	5.833730e-05	3	true
0.430728      	smoothSolver	4.279950e-04	9.141190e-09	2	true	DICPCG	2.827760e-03	6.004420e-05	3	true
0.431376      	smoothSolver	4.194450e-04	8.530220e-09	2	true	DICPCG	2.775900e-03	6.399800e-05	3	true
0.432011      	smoothSolver	4.112280e-04	7.853390e-09	2	true	DICPCG	2.706540e-03	5.806430e-05	3	true
0.432641      	smoothSolver	4.070300e-04	7.511310e-09	2	true	DICPCG	2.669160e-03	5.465850e-05	3	true
0.433264      	smoothSolver	4.026940e-04	7.087710e-09	2	true	DICPCG	2.649150e-03	5.381330e-05	3	true
0.433882      	smoothSolver	3.982850e-04	6.571270e-09	2	true	DICPCG	2.633340e-03	5.292490e-05	3	true
0.4345        	smoothSolver	3.975910e-04	6.259330e-09	2	true	DICPCG	2.583000e-03	5.198720e-05	3	true
0.435112      	smoothSolver	3.932160e-04	5.647630e-09	2	true	DICPCG	2.603310e-03	4.805960e-05	3	true
0.435719      	smoothSolver	3.888680e-04	5.057870e-09	2	true	DICPCG	2.574790e-03	4.895680e-05	3	true
0.43632       	smoothSolver	3.846370e-04	4.467410e-09	2	true	DICPCG	2.559470e-03	5.579830e-05	3	true
0.43692       	smoothSolver	3.841230e-04	4.042180e-09	2	true	DICPCG	2.543820e-03	5.796090e-05	3	true
0.437521      	smoothSolver	3.836550e-04	3.571240e-09	2	true	DICPCG	2.539800e-03	6.223400e-05	3	true
0.438116      	smoothSolver	3.795030e-04	2.963810e-09	2	true	DICPCG	2.494750e-03	6.135590e-05	3	true
0.438706      	smoothSolver	3.753200e-04	2.519200e-09	2	true	DICPCG	2.464570e-03	6.005270e-05	3	true
0.439289      	smoothSolver	3.711740e-04	2.211460e-09	2	true	DICPCG	2.457070e-03	6.052490e-05	3	true
0.439862      	smoothSolver	3.637900e-04	1.882960e-09	2	true	DICPCG	2.409160e-03	6.161000e-05	3	true
0.440429      	smoothSolver	3.600570e-04	1.742390e-09	2	true	DICPCG	2.474240e-03	7.841380e-05	3	true
0.440991      	smoothSolver	3.568250e-04	1.595310e-09	2	true	DICPCG	2.393760e-03	7.136690e-05	3	true
0.441553      	smoothSolver	3.567870e-04	1.559370e-09	2	true	DICPCG	2.382990e-03	7.601060e-05	3	true
0.44211       	smoothSolver	3.532130e-04	1.531210e-09	2	true	DICPCG	2.354910e-03	8.154400e-05	3	true
0.442667      	smoothSolver	3.529180e-04	1.629450e-09	2	true	DICPCG	2.355770e-03	9.097590e-05	3	true
0.443223      	smoothSolver	3.525000e-04	1.761080e-09	2	true	DICPCG	2.336410e-03	9.970380e-05	3	true
0.44378       	smoothSolver	3.520890e-04	1.911800e-09	2	true	DICPCG	2.353350e-03	5.368370e-05	4	true
0.444336      	smoothSolver	3.520100e-04	1.914420e-09	2	true	DICPCG	2.271030e-03	5.302700e-05	4	true
0.444888      	smoothSolver	3.483490e-04	1.888650e-09	2	true	DICPCG	2.268500e-03	1.127550e-04	3	true
0.445439      	smoothSolver	3.480800e-04	2.024230e-09	2	true	DICPCG	2.300470e-03	1.133300e-04	3	true
0.44599       	smoothSolver	3.477200e-04	2.201320e-09	2	true	DICPCG	2.345190e-03	4.492890e-05	4	true
0.446541      	smoothSolver	3.473170e-04	2.404780e-09	2	true	DICPCG	2.324190e-03	1.150890e-04	3	true
0.447098      	smoothSolver	3.503750e-04	2.670330e-09	2	true	DICPCG	2.308570e-03	1.057600e-04	3	true
0.447655      	smoothSolver	3.499860e-04	2.687450e-09	2	true	DICPCG	2.289190e-03	1.097750e-04	3	true
0.448218      	smoothSolver	3.536510e-04	2.820240e-09	2	true	DICPCG	2.311750e-03	1.045080e-04	3	true
0.44878       	smoothSolver	3.534120e-04	2.725190e-09	2	true	DICPCG	2.310810e-03	1.126820e-04	3	true
0.44935       	smoothSolver	3.569030e-04	2.712380e-09	2	true	DICPCG	2.300590e-03	1.128490e-04	2	true
0.449925      	smoothSolver	3.604190e-04	2.635010e-09	2	true	DICPCG	2.328860e-03	1.051430e-04	2	true
0.450514      	smoothSolver	3.682360e-04	2.660430e-09	2	true	DICPCG	2.350490e-03	1.012980e-04	2	true
0.45111       	smoothSolver	3.720780e-04	2.548830e-09	2	true	DICPCG	2.374480e-03	1.037450e-04	2	true
0.451722      	smoothSolver	3.810550e-04	2.620140e-09	2	true	DICPCG	2.427340e-03	1.024080e-04	2	true
0.452349      	smoothSolver	3.905210e-04	2.747980e-09	2	true	DICPCG	2.453800e-03	1.003100e-04	2	true
0.452992      	smoothSolver	4.006730e-04	2.949360e-09	2	true	DICPCG	2.498440e-03	9.667380e-05	2	true
0.453655      	smoothSolver	4.114720e-04	3.249070e-09	2	true	DICPCG	2.583510e-03	9.555170e-05	2	true
0.454336      	smoothSolver	4.229350e-04	3.671320e-09	2	true	DICPCG	2.681590e-03	8.918620e-05	2	true
0.455028      	smoothSolver	4.292440e-04	3.900430e-09	2	true	DICPCG	2.731790e-03	8.898160e-05	2	true
0.455731      	smoothSolver	4.360930e-04	4.129710e-09	2	true	DICPCG	2.744410e-03	8.917140e-05	2	true
0.456433      	smoothSolver	4.361510e-04	4.120640e-09	2	true	DICPCG	2.753170e-03	8.797830e-05	2	true
0.457136      	smoothSolver	4.363000e-04	4.313410e-09	2	true	DICPCG	2.791170e-03	9.245520e-05	2	true
0.45785       	smoothSolver	4.436230e-04	4.966460e-09	2	true	DICPCG	2.836910e-03	9.265120e-05	2	true
0.458565      	smoothSolver	4.436120e-04	5.199120e-09	2	true	DICPCG	2.817720e-03	8.965540e-05	2	true
0.459292      	smoothSolver	4.510920e-04	5.797020e-09	2	true	DICPCG	2.911880e-03	1.006970e-04	2	true
0.460019      	smoothSolver	4.511020e-04	5.714070e-09	2	true	DICPCG	2.935280e-03	1.052140e-04	2	true
0.460759      	smoothSolver	4.593800e-04	5.827840e-09	2	true	DICPCG	2.935650e-03	9.175220e-05	2	true
0.461514      	smoothSolver	4.681250e-04	5.723540e-09	2	true	DICPCG	2.977090e-03	8.948050e-05	2	true
0.462283      	smoothSolver	4.773340e-04	5.577730e-09	2	true	DICPCG	3.035410e-03	8.833900e-05	2	true
0.463053      	smoothSolver	4.768260e-04	4.971010e-09	2	true	DICPCG	3.025390e-03	8.889060e-05	2	true
0.463839      	smoothSolver	4.865840e-04	5.133940e-09	2	true	DICPCG	3.072130e-03	8.993660e-05	2	true
0.464643      	smoothSolver	4.974440e-04	5.565950e-09	2	true	DICPCG	3.115760e-03	8.781340e-05	2	true
0.465465      	smoothSolver	5.090610e-04	6.158720e-09	2	true	DICPCG	3.191210e-03	9.009990e-05	2	true
0.466307      	smoothSolver	5.220660e-04	6.912130e-09	2	true	DICPCG	3.276190e-03	9.495620e-05	2	true
0.467171      	smoothSolver	5.365380e-04	7.802260e-09	2	true	DICPCG	3.320480e-03	9.827600e-05	2	true
0.468035      	smoothSolver	5.371470e-04	7.878520e-09	2	true	DICPCG	3.425040e-03	9.893240e-05	2	true
0.468923      	smoothSolver	5.521680e-04	9.145430e-09	2	true	DICPCG	3.553350e-03	9.553400e-05	2	true
0.469837      	smoothSolver	5.682730e-04	1.365480e-10	3	true	DICPCG	3.668070e-03	9.916870e-05	2	true
0.47078       	smoothSolver	5.859240e-04	1.785090e-10	3	true	DICPCG	3.814090e-03	1.159950e-04	2	true
0.471722      	smoothSolver	5.854990e-04	1.879980e-10	3	true	DICPCG	3.841030e-03	1.236610e-04	2	true
0.472697      	smoothSolver	6.057270e-04	2.369740e-10	3	true	DICPCG	3.980730e-03	1.227840e-04	2	true
0.473709      	smoothSolver	6.287430e-04	2.925000e-10	3	true	DICPCG	4.147840e-03	1.141080e-04	2	true
0.47472       	smoothSolver	6.289920e-04	2.821940e-10	3	true	DICPCG	4.172780e-03	1.079510e-04	2	true
0.475773      	smoothSolver	6.549280e-04	3.552730e-10	3	true	DICPCG	4.332030e-03	1.092350e-04	2	true
0.476827      	smoothSolver	6.545220e-04	3.529270e-10	3	true	DICPCG	4.406970e-03	1.105870e-04	2	true
0.47788       	smoothSolver	6.538080e-04	3.582420e-10	3	true	DICPCG	4.450050e-03	1.182300e-04	2	true
0.478933      	smoothSolver	6.522710e-04	3.654300e-10	3	true	DICPCG	4.481180e-03	1.264260e-04	2	true
0.479987      	smoothSolver	6.511180e-04	3.739900e-10	3	true	DICPCG	4.432380e-03	1.361170e-04	2	true
0.48104       	smoothSolver	6.513390e-04	3.826060e-10	3	true	DICPCG	4.439590e-03	1.447100e-04	2	true
0.482093      	smoothSolver	6.519220e-04	3.912940e-10	3	true	DICPCG	4.489150e-03	1.385940e-04	2	true
0.483088      	smoothSolver	6.160210e-04	2.819320e-10	3	true	DICPCG	4.326210e-03	1.319290e-04	2	true
0.484083      	smoothSolver	6.164300e-04	2.912700e-10	3	true	DICPCG	4.289500e-03	1.361560e-04	2	true
0.485078      	smoothSolver	6.172360e-04	3.035800e-10	3	true	DICPCG	4.331050e-03	1.452210e-04	2	true
0.48601       	smoothSolver	5.787470e-04	2.106890e-10	3	true	DICPCG	4.158700e-03	1.445680e-04	2	true
0.486943      	smoothSolver	5.783550e-04	2.150360e-10	3	true	DICPCG	4.199080e-03	1.497670e-04	2	true
0.487876      	smoothSolver	5.785790e-04	2.182480e-10	3	true	DICPCG	4.143190e-03	1.338250e-04	2	true
0.488742      	smoothSolver	5.375500e-04	1.385910e-10	3	true	DICPCG	3.925860e-03	1.177350e-04	2	true
0.489608      	smoothSolver	5.372690e-04	1.387090e-10	3	true	DICPCG	3.985570e-03	1.169190e-04	2	true
0.490474      	smoothSolver	5.365830e-04	1.386630e-10	3	true	DICPCG	3.969460e-03	1.176690e-04	2	true
0.49134       	smoothSolver	5.368890e-04	1.388990e-10	3	true	DICPCG	3.906860e-03	1.187950e-04	2	true
0.492206      	smoothSolver	5.370250e-04	1.385800e-10	3	true	DICPCG	3.884940e-03	1.181350e-04	2	true
0.493072      	smoothSolver	5.363440e-04	1.388010e-10	3	true	DICPCG	3.973940e-03	1.198070e-04	2	true
0.493938      	smoothSolver	5.354510e-04	1.392570e-10	3	true	DICPCG	4.003900e-03	1.281510e-04	2	true
0.494804      	smoothSolver	5.345450e-04	1.393660e-10	3	true	DICPCG	4.009800e-03	1.374120e-04	2	true
0.49567       	smoothSolver	5.335340e-04	1.392270e-10	3	true	DICPCG	4.001210e-03	1.437970e-04	2	true
0.496536      	smoothSolver	5.330580e-04	1.388020e-10	3	true	DICPCG	4.015560e-03	1.555050e-04	2	true
0.497402      	smoothSolver	5.328960e-04	1.383290e-10	3	true	DICPCG	4.016500e-03	1.578260e-04	2	true
0.498268      	smoothSolver	5.323950e-04	1.375260e-10	3	true	DICPCG	3.958540e-03	1.450250e-04	2	true
0.499134      	smoothSolver	5.318440e-04	1.364610e-10	3	true	DICPCG	3.949940e-03	1.321440e-04	2	true
0.5           	smoothSolver	5.316050e-04	1.350830e-10	3	true	DICPCG	4.033860e-03	1.293600e-04	2	true
0.500877      	smoothSolver	5.386460e-04	1.444960e-10	3	true	DICPCG	4.120620e-03	1.258630e-04	2	true
0.501747      	smoothSolver	5.336640e-04	1.352320e-10	3	true	DICPCG	4.110080e-03	1.205950e-04	2	true
0.502624      	smoothSolver	5.380430e-04	1.414470e-10	3	true	DICPCG	4.123780e-03	1.163790e-04	2	true
0.503486      	smoothSolver	5.279540e-04	1.251250e-10	3	true	DICPCG	4.080540e-03	1.100420e-04	2	true
0.504347      	smoothSolver	5.274610e-04	1.236020e-10	3	true	DICPCG	4.067450e-03	1.132560e-04	2	true
0.505194      	smoothSolver	5.175420e-04	9.269420e-09	2	true	DICPCG	3.992530e-03	1.067220e-04	2	true
0.506048      	smoothSolver	5.216300e-04	9.424960e-09	2	true	DICPCG	4.004570e-03	1.118970e-04	2	true
0.506894      	smoothSolver	5.162390e-04	8.814420e-09	2	true	DICPCG	3.987590e-03	1.052480e-04	2	true
0.507749      	smoothSolver	5.207270e-04	8.975890e-09	2	true	DICPCG	4.001600e-03	1.087370e-04	2	true
0.50858       	smoothSolver	5.066380e-04	7.817180e-09	2	true	DICPCG	3.918190e-03	9.685780e-05	2	true
0.509434      	smoothSolver	5.207990e-04	8.764650e-09	2	true	DICPCG	4.001110e-03	1.024050e-04	2	true
0.510281      	smoothSolver	5.154230e-04	8.347000e-09	2	true	DICPCG	3.991870e-03	1.003990e-04	2	true
0.511143      	smoothSolver	5.247590e-04	9.050010e-09	2	true	DICPCG	4.079780e-03	1.096120e-04	2	true
0.511981      	smoothSolver	5.095660e-04	7.937390e-09	2	true	DICPCG	4.007630e-03	1.059180e-04	2	true
0.512844      	smoothSolver	5.244180e-04	9.020390e-09	2	true	DICPCG	4.088290e-03	1.108670e-04	2	true
0.513707      	smoothSolver	5.242350e-04	9.006670e-09	2	true	DICPCG	4.085990e-03	1.134260e-04	2	true
0.51457       	smoothSolver	5.243670e-04	9.037110e-09	2	true	DICPCG	4.055990e-03	1.182140e-04	2	true
0.515425      	smoothSolver	5.193650e-04	8.701790e-09	2	true	DICPCG	4.015430e-03	1.213440e-04	2	true
0.516288      	smoothSolver	5.251290e-04	9.204640e-09	2	true	DICPCG	4.063710e-03	1.249010e-04	2	true
0.517169      	smoothSolver	5.370340e-04	1.274490e-10	3	true	DICPCG	4.128810e-03	1.292140e-04	2	true
0.51805       	smoothSolver	5.375380e-04	1.262410e-10	3	true	DICPCG	4.088820e-03	1.270620e-04	2	true
0.518922      	smoothSolver	5.320780e-04	9.892350e-09	2	true	DICPCG	4.050900e-03	1.220980e-04	2	true
0.519803      	smoothSolver	5.381450e-04	1.256960e-10	3	true	DICPCG	4.082000e-03	1.211710e-04	2	true
0.520694      	smoothSolver	5.443320e-04	1.338970e-10	3	true	DICPCG	4.123980e-03	1.180980e-04	2	true
0.521585      	smoothSolver	5.449690e-04	1.330400e-10	3	true	DICPCG	4.167150e-03	1.157520e-04	2	true
0.522476      	smoothSolver	5.458560e-04	1.323360e-10	3	true	DICPCG	4.186350e-03	1.144480e-04	2	true
0.523367      	smoothSolver	5.462540e-04	1.320040e-10	3	true	DICPCG	4.210030e-03	1.099860e-04	2	true
0.524269      	smoothSolver	5.527080e-04	1.415570e-10	3	true	DICPCG	4.259840e-03	1.073190e-04	2	true
0.52517       	smoothSolver	5.528380e-04	1.409250e-10	3	true	DICPCG	4.234470e-03	1.031690e-04	2	true
0.526072      	smoothSolver	5.529880e-04	1.400050e-10	3	true	DICPCG	4.230660e-03	1.012810e-04	2	true
0.526974      	smoothSolver	5.531420e-04	1.388060e-10	3	true	DICPCG	4.206070e-03	1.003160e-04	2	true
0.527875      	smoothSolver	5.530410e-04	1.372000e-10	3	true	DICPCG	4.207980e-03	1.012870e-04	2	true
0.528777      	smoothSolver	5.532200e-04	1.353740e-10	3	true	DICPCG	4.207150e-03	1.038270e-04	2	true
0.529678      	smoothSolver	5.537030e-04	1.337430e-10	3	true	DICPCG	4.228510e-03	1.080500e-04	2	true
0.53058       	smoothSolver	5.542260e-04	1.319710e-10	3	true	DICPCG	4.257340e-03	1.117530e-04	2	true
0.531481      	smoothSolver	5.543790e-04	1.301850e-10	3	true	DICPCG	4.303080e-03	1.174320e-04	2	true
0.532383      	smoothSolver	5.544550e-04	1.286980e-10	3	true	DICPCG	4.358890e-03	1.245730e-04	2	true
0.533285      	smoothSolver	5.550280e-04	1.275360e-10	3	true	DICPCG	4.390430e-03	1.314030e-04	2	true
0.534186      	smoothSolver	5.558790e-04	1.264160e-10	3	true	DICPCG	4.375010e-03	1.345110e-04	2	true
0.535088      	smoothSolver	5.567560e-04	1.254290e-10	3	true	DICPCG	4.406170e-03	1.369030e-04	2	true
0.535989      	smoothSolver	5.574470e-04	1.244490e-10	3	true	DICPCG	4.379210e-03	1.400890e-04	2	true
0.536878      	smoothSolver	5.502820e-04	1.132720e-10	3	true	DICPCG	4.329760e-03	1.405130e-04	2	true
0.537767      	smoothSolver	5.505480e-04	1.124050e-10	3	true	DICPCG	4.321560e-03	1.421110e-04	2	true
0.538656      	smoothSolver	5.510950e-04	1.119990e-10	3	true	DICPCG	4.323200e-03	1.425670e-04	2	true
0.539545      	smoothSolver	5.518620e-04	1.117710e-10	3	true	DICPCG	4.332720e-03	1.361330e-04	2	true
0.540434      	smoothSolver	5.523980e-04	1.117730e-10	3	true	DICPCG	4.329590e-03	1.275210e-04	2	true
0.541323      	smoothSolver	5.528240e-04	1.119400e-10	3	true	DICPCG	4.322610e-03	1.201450e-04	2	true
0.542212      	smoothSolver	5.534930e-04	1.122510e-10	3	true	DICPCG	4.343850e-03	1.115430e-04	2	true
0.543088      	smoothSolver	5.454800e-04	1.028460e-10	3	true	DICPCG	4.298060e-03	1.042560e-04	2	true
0.543964      	smoothSolver	5.456840e-04	1.033030e-10	3	true	DICPCG	4.230790e-03	1.035270e-04	2	true
0.544839      	smoothSolver	5.459320e-04	1.035360e-10	3	true	DICPCG	4.192620e-03	1.014980e-04	2	true
0.545715      	smoothSolver	5.460820e-04	1.036470e-10	3	true	DICPCG	4.179120e-03	1.049910e-04	2	true
0.54659       	smoothSolver	5.464630e-04	1.036790e-10	3	true	DICPCG	4.176220e-03	1.093020e-04	2	true
0.547466      	smoothSolver	5.471670e-04	1.037180e-10	3	true	DICPCG	4.188010e-03	1.122280e-04	2	true
0.548327      	smoothSolver	5.389520e-04	9.467920e-09	2	true	DICPCG	4.162620e-03	1.095880e-04	2	true
0.549188      	smoothSolver	5.396240e-04	9.453110e-09	2	true	DICPCG	4.188790e-03	1.106590e-04	2	true
0.55005       	smoothSolver	5.404130e-04	9.433700e-09	2	true	DICPCG	4.204160e-03	1.117480e-04	2	true
0.550911      	smoothSolver	5.411550e-04	9.432630e-09	2	true	DICPCG	4.167110e-03	1.129130e-04	2	true
0.551772      	smoothSolver	5.418510e-04	9.443540e-09	2	true	DICPCG	4.124680e-03	1.128420e-04	2	true
0.552633      	smoothSolver	5.423920e-04	9.440640e-09	2	true	DICPCG	4.190470e-03	1.130200e-04	2	true
0.553494      	smoothSolver	5.428100e-04	9.426510e-09	2	true	DICPCG	4.232640e-03	1.153480e-04	2	true
0.554356      	smoothSolver	5.432840e-04	9.404740e-09	2	true	DICPCG	4.228740e-03	1.202890e-04	2	true
0.555217      	smoothSolver	5.434480e-04	9.369210e-09	2	true	DICPCG	4.150720e-03	1.230500e-04	2	true
0.556078      	smoothSolver	5.437550e-04	9.319350e-09	2	true	DICPCG	4.164380e-03	1.244480e-04	2	true