# Solver information
# Time        	U_solver      	Ux_initial    	Ux_final      	Ux_iters      	Uy_initial    	Uy_final      	Uy_iters      	Uz_initial    	Uz_final      	Uz_iters      	U_converged   	k_solver      	k_initial     	k_final       	k_iters       	k_converged   	p_solver      	p_initial     	p_final       	p_iters       	p_converged   	omega_solver  	omega_initial 	omega_final   	omega_iters   	omega_converged
1             	smoothSolver	1.000000e+00	6.136130e-02	4	1.000000e+00	7.120740e-02	3	1.000000e+00	6.017500e-02	4	false	smoothSolver	1.000000e+00	2.461000e-02	1	true	GAMG	1.000000e+00	8.950980e-03	11	true	smoothSolver	9.065860e-04	2.225780e-05	2	true
2             	smoothSolver	1.515940e-01	7.323980e-03	3	3.504850e-01	1.628220e-02	3	1.416510e-01	5.951400e-03	3	false	smoothSolver	2.881790e-01	6.932330e-03	1	true	GAMG	5.265160e-02	3.844300e-04	6	true	smoothSolver	6.881630e-04	2.175920e-05	2	true
3             	smoothSolver	4.076900e-02	1.819920e-03	3	1.435910e-01	5.645830e-03	3	5.321180e-02	2.119130e-03	3	false	smoothSolver	1.585240e-01	3.761950e-03	1	true	GAMG	1.135610e-01	8.263380e-04	5	true	smoothSolver	7.086490e-04	2.091620e-05	2	true
4             	smoothSolver	1.994710e-02	8.022380e-04	3	7.733460e-02	2.945020e-03	3	2.617290e-02	9.734530e-04	3	false	smoothSolver	1.076810e-01	2.547660e-03	1	true	GAMG	1.405760e-01	1.027530e-03	4	true	smoothSolver	6.324920e-04	1.914660e-05	2	true
5             	smoothSolver	1.110850e-02	5.115030e-04	3	3.607740e-02	1.522590e-03	3	1.272390e-02	5.280360e-04	3	false	smoothSolver	8.068990e-02	1.960400e-03	1	true	GAMG	1.979800e-01	1.386130e-03	3	true	smoothSolver	5.626970e-04	1.669450e-05	2	true
6             	smoothSolver	7.109640e-03	3.508710e-04	3	2.039530e-02	8.857270e-04	3	7.452080e-03	3.206060e-04	3	false	smoothSolver	6.404720e-02	1.597360e-03	1	true	GAMG	1.987470e-01	1.060210e-03	4	true	smoothSolver	5.323820e-04	1.530760e-05	2	true
7             	smoothSolver	5.465970e-03	2.522250e-04	3	1.486260e-02	6.468850e-04	3	5.697550e-03	2.404090e-04	3	false	smoothSolver	5.271440e-02	1.351700e-03	1	true	GAMG	1.273330e-01	8.066190e-04	3	true	smoothSolver	5.109220e-04	1.400320e-05	2	true
8             	smoothSolver	4.151470e-03	1.978980e-04	3	1.201610e-02	5.300290e-04	3	4.465030e-03	1.880970e-04	3	false	smoothSolver	4.457730e-02	1.178820e-03	1	true	GAMG	8.751500e-02	7.950750e-04	3	true	smoothSolver	4.947570e-04	1.303890e-05	2	true
9             	smoothSolver	3.462910e-03	1.631690e-04	3	1.053120e-02	4.604670e-04	3	3.759840e-03	1.567940e-04	3	false	smoothSolver	3.843800e-02	1.050380e-03	1	true	GAMG	5.605410e-02	4.045920e-04	3	true	smoothSolver	4.837670e-04	1.251810e-05	2	true
10            	smoothSolver	3.079160e-03	1.443600e-04	3	9.619210e-03	4.194180e-04	3	3.361790e-03	1.389840e-04	3	false	smoothSolver	3.361870e-02	9.500940e-04	1	true	GAMG	3.929790e-02	2.755770e-04	3	true	smoothSolver	4.737740e-04	1.215530e-05	2	true
11            	smoothSolver	2.839530e-03	1.321540e-04	3	8.987140e-03	3.908280e-04	3	3.094810e-03	1.268620e-04	3	false	smoothSolver	2.973620e-02	8.683810e-04	1	true	GAMG	3.064630e-02	2.332080e-04	3	true	smoothSolver	4.649620e-04	1.180780e-05	2	true
12            	smoothSolver	2.686910e-03	1.243540e-04	3	8.558300e-03	3.718130e-04	3	2.927300e-03	1.201870e-04	3	false	smoothSolver	2.653380e-02	8.006440e-04	1	true	GAMG	2.308510e-02	2.034110e-04	3	true	smoothSolver	4.575210e-04	1.149560e-05	2	true
13            	smoothSolver	2.595230e-03	1.192370e-04	3	8.249000e-03	3.572380e-04	3	2.811620e-03	1.151000e-04	3	false	smoothSolver	2.387530e-02	7.438920e-04	1	true	GAMG	1.983440e-02	1.982680e-04	3	true	smoothSolver	4.508570e-04	1.119020e-05	2	true
14            	smoothSolver	2.527250e-03	1.156330e-04	3	8.026440e-03	3.476750e-04	3	2.730850e-03	1.114580e-04	3	false	smoothSolver	2.162210e-02	6.956600e-04	1	true	GAMG	1.764080e-02	1.299780e-04	4	true	smoothSolver	4.445780e-04	1.090650e-05	2	true
15            	smoothSolver	2.504280e-03	1.140490e-04	3	7.864360e-03	3.378110e-04	3	2.687860e-03	1.088850e-04	3	false	smoothSolver	1.971300e-02	6.544320e-04	1	true	GAMG	1.722230e-02	1.488580e-04	3	true	smoothSolver	4.382080e-04	1.066380e-05	2	true
16            	smoothSolver	2.426060e-03	1.103940e-04	3	7.686160e-03	3.282960e-04	3	2.599580e-03	1.041260e-04	3	false	smoothSolver	1.806590e-02	6.185260e-04	1	true	GAMG	1.536530e-02	1.009920e-04	4	true	smoothSolver	4.330130e-04	1.050980e-05	2	true
17            	smoothSolver	2.370220e-03	1.069880e-04	3	7.539310e-03	3.207860e-04	3	2.527330e-03	1.003190e-04	3	false	smoothSolver	1.663490e-02	5.864070e-04	1	true	GAMG	1.442280e-02	1.315130e-04	3	true	smoothSolver	4.276660e-04	1.034730e-05	2	true
18            	smoothSolver	2.307750e-03	1.039640e-04	3	7.398770e-03	3.146940e-04	3	2.460660e-03	9.717420e-05	3	false	smoothSolver	1.537690e-02	5.576010e-04	1	true	GAMG	1.329480e-02	8.264030e-05	4	true	smoothSolver	4.223790e-04	1.019570e-05	2	true
19            	smoothSolver	2.232210e-03	1.002360e-04	3	7.262240e-03	3.087510e-04	3	2.386840e-03	9.394610e-05	3	false	smoothSolver	1.426380e-02	5.312420e-04	1	true	GAMG	1.202920e-02	1.042340e-04	3	true	smoothSolver	4.166270e-04	1.001240e-05	2	true
20            	smoothSolver	2.188350e-03	9.780450e-05	3	7.141940e-03	3.034290e-04	3	2.345820e-03	9.202560e-05	3	false	smoothSolver	1.327370e-02	5.074820e-04	1	true	GAMG	1.210780e-02	5.805230e-05	4	true	smoothSolver	4.105020e-04	9.819600e-06	2	true
21            	smoothSolver	2.144230e-03	9.548810e-05	3	7.034600e-03	2.990000e-04	3	2.301020e-03	8.970090e-05	3	false	smoothSolver	1.238860e-02	4.859430e-04	1	true	GAMG	1.174950e-02	1.105670e-04	3	true	smoothSolver	4.046720e-04	9.626270e-06	2	true
22            	smoothSolver	2.099990e-03	9.349250e-05	3	6.936170e-03	2.941400e-04	3	2.258480e-03	8.805400e-05	3	false	smoothSolver	1.159720e-02	4.664800e-04	1	true	GAMG	1.149230e-02	5.563850e-05	4	true	smoothSolver	3.993180e-04	9.456730e-06	2	true
23            	smoothSolver	2.070360e-03	9.182980e-05	3	6.844950e-03	2.900140e-04	3	2.224580e-03	8.622640e-05	3	false	smoothSolver	1.087870e-02	4.484920e-04	1	true	GAMG	1.129510e-02	9.832880e-05	3	true	smoothSolver	3.935360e-04	9.268330e-06	2	true
24            	smoothSolver	2.034760e-03	9.002080e-05	3	6.760960e-03	2.855270e-04	3	2.191030e-03	2.189000e-04	2	false	smoothSolver	1.023250e-02	4.319720e-04	1	true	GAMG	1.138900e-02	1.132830e-04	3	true	smoothSolver	3.880010e-04	9.096640e-06	2	true
25            	smoothSolver	1.996800e-03	8.832560e-05	3	6.668730e-03	2.809230e-04	3	2.160240e-03	8.627040e-05	3	false	smoothSolver	9.639230e-03	4.166440e-04	1	true	GAMG	1.068140e-02	5.159330e-05	4	true	smoothSolver	3.824180e-04	8.924760e-06	2	true
26            	smoothSolver	1.964500e-03	8.685400e-05	3	6.595380e-03	2.773730e-04	3	2.125420e-03	8.408160e-05	3	false	smoothSolver	9.105390e-03	4.023310e-04	1	true	GAMG	1.089250e-02	9.079100e-05	3	true	smoothSolver	3.772520e-04	8.773950e-06	2	true
27            	smoothSolver	1.935220e-03	8.512890e-05	3	6.523970e-03	2.736330e-04	3	2.094250e-03	8.119930e-05	3	false	smoothSolver	8.612370e-03	3.891360e-04	1	true	GAMG	1.028490e-02	4.520180e-05	4	true	smoothSolver	3.719670e-04	8.637920e-06	2	true
28            	smoothSolver	1.907670e-03	8.362090e-05	3	6.459350e-03	2.695330e-04	3	2.064820e-03	2.041010e-04	2	false	smoothSolver	8.164670e-03	3.768450e-04	1	true	GAMG	1.069640e-02	8.560590e-05	3	true	smoothSolver	3.670820e-04	8.516750e-06	2	true
29            	smoothSolver	1.882650e-03	8.222200e-05	3	6.388420e-03	2.642180e-04	3	2.045170e-03	7.939000e-05	3	false	smoothSolver	7.750210e-03	3.652880e-04	1	true	GAMG	1.026630e-02	9.822650e-05	3	true	smoothSolver	3.617140e-04	8.381660e-06	2	true
30            	smoothSolver	1.853610e-03	8.097930e-05	3	6.329910e-03	2.612230e-04	3	2.014370e-03	2.008790e-04	2	false	smoothSolver	7.371120e-03	3.545900e-04	1	true	GAMG	1.057010e-02	9.954720e-05	3	true	smoothSolver	3.572260e-04	8.286930e-06	2	true
31            	smoothSolver	1.827150e-03	7.981840e-05	3	6.269410e-03	2.564150e-04	3	1.995200e-03	7.808920e-05	3	false	smoothSolver	7.021360e-03	3.445930e-04	1	true	GAMG	1.025020e-02	9.667430e-05	3	true	smoothSolver	3.524170e-04	8.172450e-06	2	true
32            	smoothSolver	1.802360e-03	7.855490e-05	3	6.213940e-03	2.530880e-04	3	1.969300e-03	1.968240e-04	2	false	smoothSolver	6.697850e-03	3.353580e-04	1	true	GAMG	1.001440e-02	9.018900e-05	3	true	smoothSolver	3.481010e-04	8.076170e-06	2	true
33            	smoothSolver	1.780710e-03	7.756670e-05	3	6.160150e-03	2.497700e-04	3	1.953290e-03	7.613100e-05	3	false	smoothSolver	6.399840e-03	3.266100e-04	1	true	GAMG	1.062030e-02	9.421080e-05	3	true	smoothSolver	3.436580e-04	7.978970e-06	2	true
34            	smoothSolver	1.759660e-03	7.654100e-05	3	6.115880e-03	2.470540e-04	3	1.930360e-03	1.917100e-04	2	false	smoothSolver	6.119580e-03	3.182070e-04	1	true	GAMG	9.942040e-03	8.417250e-05	3	true	smoothSolver	3.392390e-04	7.890640e-06	2	true
35            	smoothSolver	1.737430e-03	7.551680e-05	3	6.064780e-03	2.439680e-04	3	1.912970e-03	7.381190e-05	3	false	smoothSolver	5.861320e-03	3.100530e-04	1	true	GAMG	1.036710e-02	8.821350e-05	3	true	smoothSolver	3.346450e-04	7.790580e-06	2	true
36            	smoothSolver	1.717090e-03	7.447110e-05	3	6.023960e-03	2.409760e-04	3	1.893040e-03	1.859260e-04	2	false	smoothSolver	5.619660e-03	3.025730e-04	1	true	GAMG	1.027510e-02	8.567780e-05	3	true	smoothSolver	3.302670e-04	7.708620e-06	2	true
37            	smoothSolver	1.696100e-03	7.334810e-05	3	5.976250e-03	2.380860e-04	3	1.878470e-03	1.869580e-04	2	false	smoothSolver	5.394870e-03	2.951970e-04	1	true	GAMG	9.761190e-03	8.178540e-05	3	true	smoothSolver	3.258470e-04	7.609630e-06	2	true
38            	smoothSolver	1.676950e-03	7.226170e-05	3	5.936750e-03	2.362120e-04	3	1.863750e-03	7.248870e-05	3	false	smoothSolver	5.184570e-03	2.885920e-04	1	true	GAMG	1.005220e-02	8.386040e-05	3	true	smoothSolver	3.216440e-04	7.532540e-06	2	true
39            	smoothSolver	1.662840e-03	7.148790e-05	3	5.903850e-03	2.338800e-04	3	1.846820e-03	1.824180e-04	2	false	smoothSolver	4.987930e-03	2.823430e-04	1	true	GAMG	1.012110e-02	8.283110e-05	3	true	smoothSolver	3.173210e-04	7.438230e-06	2	true
40            	smoothSolver	1.646130e-03	7.027370e-05	3	5.862260e-03	2.317490e-04	3	1.835590e-03	1.835110e-04	2	false	smoothSolver	4.806140e-03	2.768860e-04	1	true	GAMG	9.715680e-03	7.945080e-05	3	true	smoothSolver	3.134620e-04	7.369080e-06	2	true
41            	smoothSolver	1.630030e-03	6.931070e-05	3	5.820980e-03	2.294960e-04	3	1.823590e-03	7.140020e-05	3	false	smoothSolver	4.634960e-03	2.716630e-04	1	true	GAMG	1.003170e-02	8.115290e-05	3	true	smoothSolver	3.093060e-04	7.279160e-06	2	true
42            	smoothSolver	1.612250e-03	6.832500e-05	3	5.786120e-03	2.279720e-04	3	1.805690e-03	1.790790e-04	2	false	smoothSolver	4.476270e-03	2.667580e-04	1	true	GAMG	9.759220e-03	8.006090e-05	3	true	smoothSolver	3.059190e-04	7.212670e-06	2	true
43            	smoothSolver	1.600840e-03	6.755240e-05	3	5.743810e-03	2.263580e-04	3	1.798130e-03	6.945640e-05	3	false	smoothSolver	4.326000e-03	2.618580e-04	1	true	GAMG	9.952860e-03	8.107300e-05	3	true	smoothSolver	3.021770e-04	7.130440e-06	2	true
44            	smoothSolver	1.584810e-03	6.660200e-05	3	5.709830e-03	2.250890e-04	3	1.782850e-03	1.747860e-04	2	false	smoothSolver	4.184990e-03	2.573110e-04	1	true	GAMG	9.852660e-03	7.735510e-05	3	true	smoothSolver	2.987510e-04	7.056230e-06	2	true
45            	smoothSolver	1.572730e-03	6.592130e-05	3	5.676360e-03	2.235160e-04	3	1.775180e-03	1.757110e-04	2	false	smoothSolver	4.051290e-03	2.530420e-04	1	true	GAMG	9.798760e-03	7.971650e-05	3	true	smoothSolver	2.953490e-04	6.970430e-06	2	true
46            	smoothSolver	1.559120e-03	6.520520e-05	3	5.641900e-03	2.221860e-04	3	1.765890e-03	6.798020e-05	3	false	smoothSolver	3.927110e-03	2.493400e-04	1	true	GAMG	9.918180e-03	7.931010e-05	3	true	smoothSolver	2.922750e-04	6.893110e-06	2	true
47            	smoothSolver	1.547740e-03	6.455960e-05	3	5.618640e-03	2.204210e-04	3	1.753780e-03	1.710850e-04	2	false	smoothSolver	3.809380e-03	2.456860e-04	1	true	GAMG	9.815010e-03	8.116930e-05	3	true	smoothSolver	2.890780e-04	6.814940e-06	2	true
48            	smoothSolver	1.534610e-03	6.393830e-05	3	5.588570e-03	2.189580e-04	3	1.745960e-03	1.720020e-04	2	false	smoothSolver	3.699720e-03	2.424350e-04	1	true	GAMG	9.668010e-03	8.070830e-05	3	true	smoothSolver	2.863670e-04	6.751670e-06	2	true
49            	smoothSolver	1.523710e-03	6.339450e-05	3	5.560740e-03	2.176540e-04	3	1.737970e-03	1.732370e-04	2	false	smoothSolver	3.596610e-03	2.391140e-04	1	true	GAMG	9.500980e-03	7.943180e-05	3	true	smoothSolver	2.835880e-04	6.696340e-06	2	true
50            	smoothSolver	1.511680e-03	6.271730e-05	3	5.539290e-03	2.163510e-04	3	1.729930e-03	6.682910e-05	3	false	smoothSolver	3.498790e-03	2.360700e-04	1	true	GAMG	9.855350e-03	8.154340e-05	3	true	smoothSolver	2.807990e-04	6.641330e-06	2	true
51            	smoothSolver	1.501970e-03	6.218560e-05	3	5.517680e-03	2.152070e-04	3	1.715590e-03	1.678040e-04	2	false	smoothSolver	3.406830e-03	2.331110e-04	1	true	GAMG	9.391490e-03	8.220310e-05	3	true	smoothSolver	2.783210e-04	6.588190e-06	2	true
52            	smoothSolver	1.490690e-03	6.158040e-05	3	5.493900e-03	5.490890e-04	2	1.707130e-03	1.683920e-04	2	false	smoothSolver	3.319600e-03	2.301790e-04	1	true	GAMG	9.947080e-03	8.345870e-05	3	true	smoothSolver	2.759010e-04	6.533250e-06	2	true
53            	smoothSolver	1.480100e-03	6.119640e-05	3	5.485030e-03	2.206420e-04	3	1.697860e-03	1.690870e-04	2	false	smoothSolver	3.238040e-03	2.273890e-04	1	true	GAMG	9.404140e-03	8.468010e-05	3	true	smoothSolver	2.736280e-04	6.484240e-06	2	true
54            	smoothSolver	1.469900e-03	6.073660e-05	3	5.465480e-03	2.185400e-04	3	1.692010e-03	6.508170e-05	3	false	smoothSolver	3.160800e-03	2.246970e-04	1	true	GAMG	9.684560e-03	8.429920e-05	3	true	smoothSolver	2.713210e-04	6.433380e-06	2	true
55            	smoothSolver	1.460950e-03	6.052350e-05	3	5.452150e-03	2.158540e-04	3	1.681780e-03	1.636770e-04	2	false	smoothSolver	3.088200e-03	2.222590e-04	1	true	GAMG	9.436360e-03	8.704170e-05	3	true	smoothSolver	2.689450e-04	6.387280e-06	2	true
56            	smoothSolver	1.449570e-03	6.008920e-05	3	5.431770e-03	2.127790e-04	3	1.674100e-03	1.638330e-04	2	false	smoothSolver	3.018590e-03	2.198120e-04	1	true	GAMG	9.224160e-03	8.256620e-05	3	true	smoothSolver	2.666070e-04	6.341630e-06	2	true
57            	smoothSolver	1.441410e-03	5.969750e-05	3	5.419790e-03	5.397630e-04	2	1.668700e-03	1.644630e-04	2	false	smoothSolver	2.952470e-03	2.175370e-04	1	true	GAMG	9.514690e-03	8.369860e-05	3	true	smoothSolver	2.640680e-04	6.289510e-06	2	true
58            	smoothSolver	1.431440e-03	5.936210e-05	3	5.411930e-03	2.154640e-04	3	1.659640e-03	1.646870e-04	2	false	smoothSolver	2.890020e-03	2.153910e-04	1	true	GAMG	9.305910e-03	8.539900e-05	3	true	smoothSolver	2.618300e-04	6.245200e-06	2	true
59            	smoothSolver	1.425340e-03	5.918820e-05	3	5.400760e-03	2.129940e-04	3	1.656060e-03	1.651200e-04	2	false	smoothSolver	2.830570e-03	2.133180e-04	1	true	GAMG	9.170940e-03	8.214190e-05	3	true	smoothSolver	2.596790e-04	6.202860e-06	2	true
60            	smoothSolver	1.415970e-03	5.894720e-05	3	5.393930e-03	2.107190e-04	3	1.650240e-03	6.330140e-05	3	false	smoothSolver	2.773940e-03	2.112200e-04	1	true	GAMG	9.536320e-03	8.479550e-05	3	true	smoothSolver	2.576340e-04	6.159210e-06	2	true
61            	smoothSolver	1.408100e-03	5.866790e-05	3	5.388170e-03	5.360410e-04	2	1.639800e-03	1.585410e-04	2	false	smoothSolver	2.720420e-03	2.091910e-04	1	true	GAMG	9.805760e-03	8.312670e-05	3	true	smoothSolver	2.556150e-04	6.115620e-06	2	true
62            	smoothSolver	1.399960e-03	5.817900e-05	3	5.383640e-03	2.141560e-04	3	1.634440e-03	1.583800e-04	2	false	smoothSolver	2.669690e-03	2.072200e-04	1	true	GAMG	9.278300e-03	8.266850e-05	3	true	smoothSolver	2.537410e-04	6.066980e-06	2	true
63            	smoothSolver	1.393130e-03	5.772300e-05	3	5.375390e-03	2.110480e-04	3	1.631960e-03	1.590110e-04	2	false	smoothSolver	2.620210e-03	2.051330e-04	1	true	GAMG	9.475060e-03	8.752300e-05	3	true	smoothSolver	2.515110e-04	6.011270e-06	2	true
64            	smoothSolver	1.383250e-03	5.725010e-05	3	5.364440e-03	5.349790e-04	2	1.625480e-03	1.596800e-04	2	false	smoothSolver	2.574480e-03	2.034760e-04	1	true	GAMG	9.337850e-03	8.342630e-05	3	true	smoothSolver	2.497130e-04	5.961710e-06	2	true
65            	smoothSolver	1.378410e-03	5.688330e-05	3	5.368710e-03	2.123460e-04	3	1.621210e-03	1.603700e-04	2	false	smoothSolver	2.530010e-03	2.017540e-04	1	true	GAMG	9.588220e-03	8.945870e-05	3	true	smoothSolver	2.476810e-04	5.913480e-06	2	true
66            	smoothSolver	1.370830e-03	5.645230e-05	3	5.362850e-03	2.092080e-04	3	1.617560e-03	1.608460e-04	2	false	smoothSolver	2.487120e-03	2.001300e-04	1	true	GAMG	9.322010e-03	8.727700e-05	3	true	smoothSolver	2.459220e-04	5.862700e-06	2	true
67            	smoothSolver	1.364280e-03	5.607820e-05	3	5.357100e-03	5.311140e-04	2	1.612890e-03	1.609670e-04	2	false	smoothSolver	2.445240e-03	1.984860e-04	1	true	GAMG	9.491180e-03	8.122480e-05	3	true	smoothSolver	2.438920e-04	5.815060e-06	2	true
68            	smoothSolver	1.357970e-03	5.570090e-05	3	5.359430e-03	2.097160e-04	3	1.607240e-03	1.600780e-04	2	false	smoothSolver	2.405670e-03	1.969960e-04	1	true	GAMG	9.559440e-03	8.945080e-05	3	true	smoothSolver	2.420090e-04	5.768950e-06	2	true
69            	smoothSolver	1.352120e-03	5.540820e-05	3	5.352700e-03	5.337550e-04	2	1.604230e-03	1.594190e-04	2	false	smoothSolver	2.367560e-03	1.953910e-04	1	true	GAMG	9.470420e-03	8.682830e-05	3	true	smoothSolver	2.399060e-04	5.722200e-06	2	true
70            	smoothSolver	1.344930e-03	5.508860e-05	3	5.354360e-03	2.104900e-04	3	1.597760e-03	1.582620e-04	2	false	smoothSolver	2.331070e-03	1.939100e-04	1	true	GAMG	9.437390e-03	8.690150e-05	3	true	smoothSolver	2.380110e-04	5.680130e-06	2	true
71            	smoothSolver	1.339660e-03	5.491960e-05	3	5.346190e-03	2.066820e-04	3	1.594660e-03	1.576250e-04	2	false	smoothSolver	2.295660e-03	1.924200e-04	1	true	GAMG	9.354350e-03	9.018600e-05	3	true	smoothSolver	2.360590e-04	5.636010e-06	2	true
72            	smoothSolver	1.332590e-03	5.453930e-05	3	5.338160e-03	5.258530e-04	2	1.590770e-03	1.572350e-04	2	false	smoothSolver	2.261650e-03	1.911100e-04	1	true	GAMG	9.661980e-03	8.476580e-05	3	true	smoothSolver	2.342200e-04	5.592870e-06	2	true
73            	smoothSolver	1.327840e-03	5.414150e-05	3	5.337750e-03	2.062320e-04	3	1.585920e-03	1.564130e-04	2	false	smoothSolver	2.229050e-03	1.896800e-04	1	true	GAMG	9.410230e-03	8.756440e-05	3	true	smoothSolver	2.322510e-04	5.546150e-06	2	true
74            	smoothSolver	1.323390e-03	5.396180e-05	3	5.329160e-03	5.256940e-04	2	1.584900e-03	1.564020e-04	2	false	smoothSolver	2.197670e-03	1.882240e-04	1	true	GAMG	9.489290e-03	8.506360e-05	3	true	smoothSolver	2.304650e-04	5.500640e-06	2	true
75            	smoothSolver	1.317340e-03	5.355240e-05	3	5.327690e-03	2.064190e-04	3	1.578920e-03	1.554370e-04	2	false	smoothSolver	2.167710e-03	1.867390e-04	1	true	GAMG	9.545990e-03	9.244090e-05	3	true	smoothSolver	2.286080e-04	5.455480e-06	2	true
76            	smoothSolver	1.315410e-03	5.316770e-05	3	5.321120e-03	5.254430e-04	2	1.580010e-03	1.555000e-04	2	false	smoothSolver	2.138970e-03	1.853770e-04	1	true	GAMG	9.486630e-03	8.808480e-05	3	true	smoothSolver	2.268920e-04	5.406600e-06	2	true
77            	smoothSolver	1.309650e-03	5.291580e-05	3	5.315190e-03	2.056480e-04	3	1.574980e-03	1.549330e-04	2	false	smoothSolver	2.112340e-03	1.841360e-04	1	true	GAMG	9.880150e-03	9.574470e-05	3	true	smoothSolver	2.252050e-04	5.355150e-06	2	true
78            	smoothSolver	1.305710e-03	5.257320e-05	3	5.307410e-03	5.216970e-04	2	1.574870e-03	1.545920e-04	2	false	smoothSolver	2.086940e-03	1.830320e-04	1	true	GAMG	9.582470e-03	9.055850e-05	3	true	smoothSolver	2.237040e-04	5.302560e-06	2	true
79            	smoothSolver	1.301710e-03	5.218180e-05	3	5.304000e-03	5.280870e-04	2	1.571150e-03	1.540060e-04	2	false	smoothSolver	2.063030e-03	1.818890e-04	1	true	GAMG	9.613870e-03	9.260060e-05	3	true	smoothSolver	2.221290e-04	5.247970e-06	2	true
80            	smoothSolver	1.297980e-03	5.176080e-05	3	5.302500e-03	2.058860e-04	3	1.570740e-03	1.532580e-04	2	false	smoothSolver	2.039650e-03	1.806540e-04	1	true	GAMG	9.636470e-03	9.276320e-05	3	true	smoothSolver	2.206240e-04	5.193940e-06	2	true
81            	smoothSolver	1.294050e-03	5.147200e-05	3	5.289010e-03	5.212990e-04	2	1.570350e-03	1.529700e-04	2	false	smoothSolver	2.017660e-03	1.794620e-04	1	true	GAMG	9.590380e-03	9.062960e-05	3	true	smoothSolver	2.190230e-04	5.141690e-06	2	true
82            	smoothSolver	1.291130e-03	5.118790e-05	3	5.291870e-03	5.270260e-04	2	1.569580e-03	1.526880e-04	2	false	smoothSolver	1.996410e-03	1.784280e-04	1	true	GAMG	9.090460e-03	8.751090e-05	3	true	smoothSolver	2.176830e-04	5.094810e-06	2	true
83            	smoothSolver	1.289700e-03	5.090430e-05	3	5.289750e-03	2.055870e-04	3	1.569260e-03	1.523850e-04	2	false	smoothSolver	1.976400e-03	1.774370e-04	1	true	GAMG	9.513260e-03	9.416550e-05	3	true	smoothSolver	2.163920e-04	5.053540e-06	2	true
84            	smoothSolver	1.287170e-03	5.077420e-05	3	5.280660e-03	5.209090e-04	2	1.571730e-03	1.528740e-04	2	false	smoothSolver	1.957250e-03	1.766780e-04	1	true	GAMG	9.222860e-03	9.049590e-05	3	true	smoothSolver	2.152910e-04	5.016010e-06	2	true
85            	smoothSolver	1.285260e-03	5.037480e-05	3	5.275760e-03	5.245660e-04	2	1.571780e-03	1.526280e-04	2	false	smoothSolver	1.939270e-03	1.759040e-04	1	true	GAMG	9.187510e-03	9.165480e-05	3	true	smoothSolver	2.141980e-04	4.985450e-06	2	true
86            	smoothSolver	1.282630e-03	5.010340e-05	3	5.276970e-03	2.048430e-04	3	1.571990e-03	1.521550e-04	2	false	smoothSolver	1.922590e-03	1.753660e-04	1	true	GAMG	9.376420e-03	9.185370e-05	3	true	smoothSolver	2.134250e-04	4.963410e-06	2	true
87            	smoothSolver	1.279800e-03	4.993210e-05	3	5.263260e-03	5.173310e-04	2	1.572520e-03	1.517270e-04	2	false	smoothSolver	1.907970e-03	1.749810e-04	1	true	GAMG	9.328360e-03	8.974960e-05	3	true	smoothSolver	2.123790e-04	4.936390e-06	2	true
88            	smoothSolver	1.276640e-03	4.984710e-05	3	5.262660e-03	5.234960e-04	2	1.572520e-03	1.516020e-04	2	false	smoothSolver	1.893680e-03	1.746530e-04	1	true	GAMG	9.169750e-03	8.767300e-05	3	true	smoothSolver	2.116080e-04	4.911470e-06	2	true
89            	smoothSolver	1.273500e-03	1.271710e-04	2	5.257230e-03	2.048260e-04	3	1.572380e-03	1.509880e-04	2	false	smoothSolver	1.880770e-03	1.742920e-04	1	true	GAMG	1.031110e-02	9.184470e-05	3	true	smoothSolver	2.105380e-04	4.881920e-06	2	true
90            	smoothSolver	1.271500e-03	5.116640e-05	3	5.247220e-03	5.176320e-04	2	1.574670e-03	1.504370e-04	2	false	smoothSolver	1.869090e-03	1.738860e-04	1	true	GAMG	9.539380e-03	8.668990e-05	3	true	smoothSolver	2.097430e-04	4.852290e-06	2	true
91            	smoothSolver	1.268840e-03	5.037670e-05	3	5.245160e-03	5.220540e-04	2	1.576170e-03	1.505830e-04	2	false	smoothSolver	1.857980e-03	1.735460e-04	1	true	GAMG	9.302120e-03	8.738990e-05	3	true	smoothSolver	2.088490e-04	4.828060e-06	2	true
92            	smoothSolver	1.266270e-03	4.953950e-05	3	5.242720e-03	2.039070e-04	3	1.578980e-03	1.501820e-04	2	false	smoothSolver	1.848200e-03	1.733170e-04	1	true	GAMG	9.449390e-03	9.110520e-05	3	true	smoothSolver	2.081520e-04	4.810100e-06	2	true
93            	smoothSolver	1.264790e-03	1.258920e-04	2	5.228280e-03	5.130390e-04	2	1.584140e-03	1.504780e-04	2	false	smoothSolver	1.840090e-03	1.733420e-04	1	true	GAMG	1.016010e-02	8.778650e-05	3	true	smoothSolver	2.072730e-04	4.791960e-06	2	true
94            	smoothSolver	1.261600e-03	5.009730e-05	3	5.228520e-03	5.160150e-04	2	1.583170e-03	1.501850e-04	2	false	smoothSolver	1.831530e-03	1.736670e-04	1	true	GAMG	9.571240e-03	8.824340e-05	3	true	smoothSolver	2.068660e-04	4.778010e-06	2	true
95            	smoothSolver	1.259630e-03	4.898530e-05	3	5.220950e-03	5.199850e-04	2	1.584850e-03	1.503980e-04	2	false	smoothSolver	1.823610e-03	1.739730e-04	1	true	GAMG	9.536060e-03	9.185640e-05	3	true	smoothSolver	2.062250e-04	4.760870e-06	2	true
96            	smoothSolver	1.257270e-03	1.242000e-04	2	5.220930e-03	2.012600e-04	3	1.587640e-03	1.504740e-04	2	false	smoothSolver	1.815710e-03	1.743090e-04	1	true	GAMG	1.032990e-02	9.548180e-05	3	true	smoothSolver	2.056070e-04	4.740900e-06	2	true
97            	smoothSolver	1.256110e-03	4.928870e-05	3	5.206000e-03	5.078050e-04	2	1.590250e-03	1.504180e-04	2	false	smoothSolver	1.809090e-03	1.747760e-04	1	true	GAMG	9.994510e-03	9.452130e-05	3	true	smoothSolver	2.049980e-04	4.723010e-06	2	true
98            	smoothSolver	1.254140e-03	1.248890e-04	2	5.211280e-03	5.111860e-04	2	1.592480e-03	1.501530e-04	2	false	smoothSolver	1.803340e-03	1.753080e-04	1	true	GAMG	1.017650e-02	9.622550e-05	3	true	smoothSolver	2.045390e-04	4.709050e-06	2	true
99            	smoothSolver	1.252390e-03	4.929820e-05	3	5.205410e-03	5.133350e-04	2	1.591080e-03	1.491880e-04	2	false	smoothSolver	1.797360e-03	1.755930e-04	1	true	GAMG	1.003430e-02	9.740700e-05	3	true	smoothSolver	2.039970e-04	4.696640e-06	2	true
100           	smoothSolver	1.250620e-03	1.246370e-04	2	5.208680e-03	5.156720e-04	2	1.593400e-03	1.489880e-04	2	false	smoothSolver	1.791070e-03	1.754980e-04	1	true	GAMG	1.017470e-02	9.926880e-05	3	true	smoothSolver	2.034190e-04	4.683850e-06	2	true
101           	smoothSolver	1.249310e-03	4.882370e-05	3	5.199110e-03	5.153830e-04	2	1.591810e-03	1.483080e-04	2	false	smoothSolver	1.786280e-03	1.757240e-04	1	true	GAMG	1.028470e-02	1.013860e-04	3	true	smoothSolver	2.029090e-04	4.678430e-06	2	true
102           	smoothSolver	1.248460e-03	1.234290e-04	2	5.198600e-03	5.157980e-04	2	1.594800e-03	1.485000e-04	2	false	smoothSolver	1.782430e-03	1.759360e-04	1	true	GAMG	1.043130e-02	1.021220e-04	3	true	smoothSolver	2.025440e-04	4.673280e-06	2	true
103           	smoothSolver	1.246330e-03	4.822420e-05	3	5.191480e-03	5.143680e-04	2	1.591810e-03	1.482340e-04	2	false	smoothSolver	1.777580e-03	1.759730e-04	1	true	GAMG	1.052180e-02	5.154260e-05	4	true	smoothSolver	2.020650e-04	4.667390e-06	2	true
104           	smoothSolver	1.248400e-03	1.227860e-04	2	5.192840e-03	5.136660e-04	2	1.595110e-03	1.485960e-04	2	false	smoothSolver	1.772490e-03	1.765580e-04	1	true	GAMG	1.083140e-02	9.701310e-05	3	true	smoothSolver	2.016640e-04	4.663980e-06	2	true
105           	smoothSolver	1.246200e-03	4.809650e-05	3	5.185970e-03	5.112580e-04	2	1.592690e-03	1.483130e-04	2	false	smoothSolver	1.764540e-03	2.348230e-05	2	true	GAMG	1.071850e-02	1.043410e-04	3	true	smoothSolver	2.012610e-04	4.654870e-06	2	true
106           	smoothSolver	1.246950e-03	1.227470e-04	2	5.187960e-03	5.105610e-04	2	1.595860e-03	1.485640e-04	2	false	smoothSolver	1.753950e-03	2.362380e-05	2	true	GAMG	1.104940e-02	5.050200e-05	4	true	smoothSolver	2.009480e-04	4.642600e-06	2	true
107           	smoothSolver	1.247280e-03	4.810060e-05	3	5.185820e-03	5.078330e-04	2	1.593790e-03	1.477690e-04	2	false	smoothSolver	1.744150e-03	2.375940e-05	2	true	GAMG	1.089490e-02	1.024300e-04	3	true	smoothSolver	2.006270e-04	4.627520e-06	2	true
108           	smoothSolver	1.246790e-03	1.225590e-04	2	5.184600e-03	5.063620e-04	2	1.596880e-03	1.477030e-04	2	false	smoothSolver	1.732170e-03	2.378460e-05	2	true	GAMG	1.102070e-02	5.204110e-05	4	true	smoothSolver	2.001760e-04	4.603510e-06	2	true
109           	smoothSolver	1.248130e-03	4.796410e-05	3	5.175930e-03	5.036210e-04	2	1.596660e-03	1.472040e-04	2	false	smoothSolver	1.720260e-03	2.374880e-05	2	true	GAMG	1.062850e-02	1.016920e-04	3	true	smoothSolver	1.997920e-04	4.581740e-06	2	true
110           	smoothSolver	1.250400e-03	1.225740e-04	2	5.173940e-03	5.006960e-04	2	1.602880e-03	1.475960e-04	2	false	smoothSolver	1.709050e-03	2.368350e-05	2	true	GAMG	1.076380e-02	5.080650e-05	4	true	smoothSolver	1.994240e-04	4.557740e-06	2	true
111           	smoothSolver	1.251420e-03	4.807400e-05	3	5.173610e-03	5.004480e-04	2	1.602020e-03	1.472580e-04	2	false	smoothSolver	1.698360e-03	2.363280e-05	2	true	GAMG	1.062650e-02	9.990350e-05	3	true	smoothSolver	1.989720e-04	4.542390e-06	2	true
112           	smoothSolver	1.251970e-03	1.229230e-04	2	5.172290e-03	4.996240e-04	2	1.606950e-03	1.479030e-04	2	false	smoothSolver	1.687150e-03	2.352890e-05	2	true	GAMG	1.081650e-02	5.106470e-05	4	true	smoothSolver	1.986000e-04	4.522070e-06	2	true
113           	smoothSolver	1.253610e-03	4.811510e-05	3	5.166820e-03	4.989960e-04	2	1.609140e-03	1.477560e-04	2	false	smoothSolver	1.678070e-03	2.342150e-05	2	true	GAMG	1.065970e-02	1.007740e-04	3	true	smoothSolver	1.981870e-04	4.504750e-06	2	true
114           	smoothSolver	1.255410e-03	1.226580e-04	2	5.164730e-03	4.985240e-04	2	1.615470e-03	1.478780e-04	2	false	smoothSolver	1.668190e-03	2.333410e-05	2	true	GAMG	1.090410e-02	5.143030e-05	4	true	smoothSolver	1.977650e-04	4.492740e-06	2	true
115           	smoothSolver	1.257140e-03	1.252030e-04	2	5.163610e-03	4.992180e-04	2	1.617970e-03	1.480820e-04	2	false	smoothSolver	1.660160e-03	2.330270e-05	2	true	GAMG	1.061570e-02	1.047170e-04	3	true	smoothSolver	1.973300e-04	4.480490e-06	2	true
116           	smoothSolver	1.257510e-03	4.870790e-05	3	5.159580e-03	4.981000e-04	2	1.622740e-03	1.483160e-04	2	false	smoothSolver	1.651790e-03	2.329730e-05	2	true	GAMG	1.145640e-02	5.326250e-05	4	true	smoothSolver	1.970840e-04	4.470800e-06	2	true
117           	smoothSolver	1.258780e-03	1.240940e-04	2	5.158800e-03	4.990430e-04	2	1.629320e-03	1.495010e-04	2	false	smoothSolver	1.642710e-03	2.326220e-05	2	true	GAMG	1.120160e-02	1.059450e-04	3	true	smoothSolver	1.966630e-04	4.458400e-06	2	true
118           	smoothSolver	1.258450e-03	4.836010e-05	3	5.148170e-03	4.981250e-04	2	1.632490e-03	1.492460e-04	2	false	smoothSolver	1.635770e-03	2.325650e-05	2	true	GAMG	1.127750e-02	5.036540e-05	4	true	smoothSolver	1.964800e-04	4.455680e-06	2	true
119           	smoothSolver	1.259380e-03	1.237020e-04	2	5.144800e-03	4.998870e-04	2	1.638470e-03	1.502750e-04	2	false	smoothSolver	1.628170e-03	2.333720e-05	2	true	GAMG	1.131100e-02	1.036000e-04	3	true	smoothSolver	1.960960e-04	4.456620e-06	2	true