# Probe 0 (0.8245 0 0.021)
# Probe 1 (0.8245 0 0.061)
# Probe 2 (0.8245 0 0.101)
# Probe 3 (0.8245 0 0.141)
# Probe 4 (0.8035 0 0.162)
# Probe 5 (0.7635 0 0.162)
# Probe 6 (0.7235 0 0.162)
# Probe 7 (0.6835 0 0.162)
#       Probe             0             1             2             3             4             5             6             7
#        Time
   0.00120482       3.87256       3.52189        2.9878       2.31615       1.65647       1.16906      0.917929      0.775818
   0.00265769     -0.539387     -0.837042      -1.22651      -1.53005      -1.71993      -1.77727      -1.76198      -1.67065
   0.00439595      0.680701      0.372104    -0.0461202     -0.431242     -0.729715     -0.890916     -0.945118     -0.920035
   0.00647429      0.980814      0.669426       0.24401     -0.161244     -0.486286     -0.672632     -0.743181     -0.733546
    0.0089355      0.997631       0.68614      0.260488     -0.145907     -0.472552     -0.660442     -0.732019     -0.723702
    0.0118731      0.990079      0.678572      0.252901     -0.153722     -0.480594      -0.66853     -0.739697     -0.730772
    0.0153981       0.99814      0.686621      0.260985     -0.145809     -0.473001     -0.661308     -0.732802      -0.72444
    0.0196282       1.00941      0.697774      0.271867     -0.135939     -0.464508     -0.654105      -0.72633     -0.718656
    0.0246515       1.01346      0.701792      0.275841     -0.132351     -0.461436     -0.651472     -0.723825     -0.716279
    0.0304475       1.00198       0.69041       0.26474     -0.142917     -0.471279     -0.660558     -0.732239     -0.724188
    0.0374028      0.982267       0.67087      0.245671     -0.160921     -0.487918     -0.675893      -0.74664     -0.737589
    0.0452274       0.93947      0.628392      0.204025      -0.20034     -0.524188     -0.708895     -0.776997      -0.76552
    0.0543562      0.877714      0.566966      0.143411     -0.257781     -0.576349     -0.755013     -0.817568     -0.801391
    0.0657671      0.788339      0.478132      0.055951     -0.340628     -0.652329     -0.823719     -0.880365     -0.858448
    0.0771781      0.665211      0.355945    -0.0637454     -0.453425      -0.75535     -0.916676     -0.965335     -0.936203
     0.088589      0.781175      0.469646     0.0439482     -0.360371     -0.679642     -0.855338     -0.910268      -0.88625
          0.1       1.13411      0.820477      0.389288    -0.0362168      -0.38609      -0.59286     -0.670649     -0.669209
      0.10625      0.706946      0.397234    -0.0236375     -0.422625     -0.735388      -0.90398     -0.950657     -0.921833
     0.113462      0.643009      0.333094    -0.0884447     -0.487047     -0.798312     -0.964674      -1.00902     -0.976503
     0.120673      0.874972       0.56192       0.13222     -0.287446     -0.624896      -0.81444     -0.871593     -0.850817
     0.127885       1.30131      0.982944      0.539416     0.0841977     -0.296871     -0.524607       -0.6025     -0.603285
     0.132692      0.407642     0.0996302     -0.316548     -0.703451     -0.996122      -1.14074      -1.16324      -1.11427
      0.13787      0.236104    -0.0690242     -0.477713     -0.846645      -1.11846      -1.24637      -1.26302      -1.20916
     0.144083       2.01262        1.6881       1.22831      0.723382      0.278017   -0.00837826     -0.119346     -0.151535
     0.151072        2.0358       1.70801       1.23976      0.717563      0.254074    -0.0450004     -0.158287     -0.192236
     0.156509       1.64584       1.32071      0.859848      0.357579    -0.0765023     -0.343958     -0.430111     -0.440759
     0.160858        -1.053      -1.34494      -1.71956      -2.00185      -2.15661      -2.16939      -2.10258      -1.97739
     0.165751      0.479556      0.168506      -0.25555     -0.663614     -0.977912      -1.13588      -1.15525       -1.1032
     0.171459       1.40439       1.08116      0.625075      0.137285      -0.27642     -0.523448     -0.594878     -0.591184
     0.177167       2.23951       1.90442       1.41728      0.849896      0.337537    0.00363907     -0.114881      -0.15329
     0.181734       1.02418      0.705429      0.260743     -0.204125     -0.586975     -0.802535     -0.847951     -0.823044
       0.1863      0.437563      0.125425     -0.302126     -0.720105      -1.04049      -1.19637      -1.20178      -1.14141
     0.190867       1.40253       1.07986      0.624723      0.131627     -0.285196     -0.529527     -0.588039     -0.576892
     0.195433       2.47085       2.13373       1.64113       1.05292      0.517953      0.168755     0.0510796    0.00721285
          0.2       2.94384       2.59685       2.07883       1.43137      0.827979      0.423527      0.283349      0.219258
     0.204762      0.619245      0.303335     -0.135101     -0.584444     -0.939151      -1.11948      -1.12806       -1.0745
     0.210053       2.30084       1.95972       1.45609      0.849317      0.302455    -0.0453416     -0.143083     -0.166358
     0.216049       1.81154       1.47241      0.973639      0.387517     -0.127034     -0.439433     -0.507431     -0.501746
     0.221646       2.69368       2.33785       1.79647       1.11155       0.48199     0.0751467    -0.0350593    -0.0684986
     0.225999      -1.88695      -2.17764      -2.55127      -2.82925      -2.95106      -2.90197      -2.74386      -2.54143
     0.230932       1.52181       1.18204      0.682121     0.0984811     -0.402422     -0.691452     -0.729092     -0.698673
     0.236688       1.80178       1.45332      0.931125      0.304435     -0.243162     -0.567875     -0.618629     -0.598792
     0.242444       3.48598       3.10761       2.50888        1.7049      0.946823      0.444275      0.305411      0.247042
     0.246871      0.184481     -0.137715     -0.593731      -1.07474      -1.43726         -1.59       -1.5273      -1.41772
     0.251701       2.54463       2.17765       1.60832      0.875247      0.213393     -0.193985     -0.262143     -0.261876
     0.257068       2.47596       2.10017       1.50949      0.748293     0.0654078     -0.348619     -0.405752     -0.392975
     0.262434       4.18648       3.77388       3.09073       2.13079       1.22099      0.623161      0.485423      0.427554
     0.266608   7.56818e-06     -0.330787      -0.80708      -1.31873      -1.69245      -1.82818      -1.71507      -1.57009
     0.271378       3.74769        3.3399        2.6703       1.74432        0.8849      0.340352      0.246049      0.218475
     0.277103       5.47752       5.02091       4.23071       3.07086       1.95486       1.21073       1.03801      0.947454
     0.282827      0.390998    0.00191579      -0.61215      -1.32643      -1.87837       -2.1109      -1.97787      -1.80189
      0.28712      0.741488      0.355606     -0.248458     -0.960609      -1.51404      -1.75072      -1.62219      -1.46526
     0.291414       3.76884        3.3057       2.51288       1.42545      0.449345     -0.128437     -0.155524     -0.126971
     0.295707       5.48088       4.95751       4.02181       2.68024       1.43749      0.661835       0.56633      0.538417
          0.3       5.90594       5.33676       4.29897       2.81807       1.45683      0.618325      0.533456      0.515054
     0.304545     -0.196856     -0.604833      -1.24407      -1.93466      -2.40117      -2.51408      -2.25873      -2.00645
     0.309848       3.98732       3.43648       2.45908       1.17722     0.0768036     -0.525167     -0.475381     -0.377264
     0.315859       6.37384        5.6939       4.42633       2.71326       1.19518      0.307097      0.276985      0.317779
     0.320808       6.64295       5.89067       4.48161       2.61164       0.98282     0.0549561     0.0622096      0.115956
     0.325208      0.632111     0.0696066     -0.872842        -1.855      -2.49108      -2.62282      -2.25163      -1.92171
     0.330194       6.78109       5.94085       4.37448       2.41855      0.787354    -0.0809094    0.00294519      0.119635
     0.335563         10.09       9.00601       6.92858       4.32549       2.11831      0.888892      0.897182      0.963113
     0.340166       5.10314       4.15825       2.45084      0.539161     -0.902107      -1.52587      -1.23718     -0.985163
     0.345152       2.98435       2.01844      0.313076      -1.37942      -2.49253      -2.80149      -2.33577      -1.92545
     0.350637        9.2579       7.86147       5.28135       2.49167      0.371546     -0.612436     -0.362848     -0.106043
     0.356122       14.0147       12.1001       8.53893       4.74443       1.83368      0.416478      0.614248      0.839174
      0.36051       1.22202      0.212594      -1.46178      -2.87721       -3.5865       -3.5229      -2.83393      -2.32234
     0.365446       7.80813       6.19797       3.32005      0.575268      -1.25104      -1.85745      -1.33125      -0.88979
     0.371205       13.5119       11.1989       7.02931       3.09133      0.374015     -0.702113     -0.252808      0.163796
     0.376004       18.9943       15.8499       10.1788       4.92189       1.29787     -0.183838      0.274413      0.683919
     0.380003      -3.08161      -3.50097      -4.31594      -5.08066      -5.20662      -4.67303      -3.69402      -3.02581
     0.385003       10.8112       8.52323       4.38822      0.748917      -1.47574      -2.04879      -1.31676     -0.725301
     0.390002       16.0899       12.6609       6.61887       1.70709      -1.17809      -1.90181      -1.09082     -0.413746
     0.395001       22.9017       18.2048       9.94217       3.27477     -0.774211      -2.05607      -1.41565     -0.936646
          0.4       2.85094       1.68553     -0.541939        -2.541      -3.50288      -3.34342      -2.44587      -1.83168
     0.404545       16.8911       11.9758       4.60117   -0.00603521      -2.10466      -2.20737      -1.27359     -0.600682
     0.408523       25.4958       17.6346       6.45559       0.25343      -2.32836      -2.40277       -1.3499     -0.585123
     0.412041       36.6216       25.7945       10.4188       1.94524      -1.72545      -2.12786      -1.03443     -0.239989
     0.415299       59.7572       44.7869       22.8974       9.15666       1.43335      -1.57668      -1.64347      -2.07801
     0.418981       63.7899       39.5727       11.5119       1.03714      -1.99481      -2.31425      -1.63101      -1.20193
     0.423032       66.8818       33.3652       4.60708      -3.47818      -4.06014      -3.06968      -1.89844      -1.12339
      0.42756       118.472       53.7187       8.60987      -3.04666      -3.69526      -2.80802       -1.5467      -0.65165
     0.432087       189.657       85.1643       18.3938      0.701239      -1.77201      -2.55203      -2.10521      -2.14399
     0.436938       265.667       114.557       22.7465    -0.0894758      -2.14633      -2.59897      -1.81382      -1.45122
     0.441789       375.004       165.104       34.1055      0.636817      -2.57321      -2.78035      -1.67854     -0.983481
      0.44664       9205.46        5184.5       1036.75       48.8933       0.29049      -2.13488     -0.926402    -0.0787521
     0.451087       6943.16       3904.92        785.72       36.1959      -3.52715      -3.77591      -2.78487      -2.76106
     0.455533       5429.02       3067.36       639.387       36.3462      -6.15226      -4.69946      -3.10996      -2.40192
      0.45998       5120.54       2914.87       631.449        45.574      -6.34631      -4.84053      -3.16013      -2.13926
     0.464427       6271.97       4379.31       1759.88       487.966        23.609      -4.12471      -2.65274      -1.53177
     0.468379       6554.09       4772.73       2081.93       619.045       35.0714       -3.4365      -2.60817      -2.83586
     0.472897       5779.93       4262.54       1919.31        591.53        40.194      -5.28419      -3.46509      -2.76905
     0.477414       5646.22       4262.36       2007.74        644.54       50.3522      -6.25406      -4.05415      -2.77939
     0.481931        5576.8       4295.19       2098.67       695.199       59.4962       -8.0281      -5.41822      -3.53172
     0.485545       5830.87       4582.56       2318.66       794.151       78.7324      -6.08234      -4.91478      -4.51172
     0.489159       5721.26       4544.61       2325.89       797.487       80.0467       5.17324       2.73301     0.0704485
     0.492772       5636.86       4513.52       2335.67       807.942       84.9629       8.84197       1.21792      -1.27048
     0.496386        5569.4       4487.94       2342.17       820.137       96.9046       20.3385       3.43806     -0.537031
          0.5       5518.33       4472.16       2351.46       833.929        110.55       33.2779       6.18152      0.342906
        0.504       5390.83       4388.24       2321.59       836.318       127.306       50.1368       10.2169       1.67263
     0.508571       5310.17       4357.15       2366.73       905.459       181.002       71.8672       14.8018       3.55932
     0.513651       5387.42       4508.03       2665.61          1205       368.957        118.86       16.1823     -0.881859
     0.518448       5576.92       4750.29       2992.42       1478.02       520.143       156.225       31.3722       3.15789
      0.52274       5697.59       4900.26       3169.47       1615.17       597.871       188.428       51.3862       10.8618
     0.527569       5549.17        4785.2       3122.06       1615.67       623.924       219.748       72.3639       18.2445
     0.533141       5411.38       4678.63       3079.13       1616.77       650.823       254.988       98.5551       27.6285
     0.537319       5580.46       4858.44       3249.97       1729.58       709.213       286.113       124.284       35.9507
     0.541498       5482.32       4780.56       3211.34       1721.96       742.541       359.189       188.904       56.5858
     0.546373       5299.05       4622.64       3116.16       1683.51       746.882       387.256        221.51       75.9254
     0.551248       5252.06       4593.45       3120.78       1700.29       765.576       406.515       252.019       99.1454
     0.556123       5211.54       4569.92       3129.13       1718.56       782.019       419.553       275.934       119.111
     0.560511       5230.06       4601.35       3176.95       1756.59       803.082       430.544       299.173       139.715
     0.565447       5128.76       4520.22       3143.66       1739.39       623.312      -3.63092      -120.863      -21.6081
     0.569766       5175.45       4577.03       3213.95       1800.07       720.061        162.11        42.973       46.4748
     0.574805       5041.23       4458.57       3139.97       1770.19       794.122       366.342       270.511       156.804
     0.579844       5000.87       4429.48       3135.69       1777.03       774.456       298.872       194.022       117.052
     0.584883       4956.79       4396.48       3126.54       1780.71       774.481       292.945       228.049       165.736
     0.589922       4899.74       4348.15       3095.86       1767.63       799.527       357.735       254.421       144.555
     0.594961       4851.07       4308.49       3074.57       1753.11       653.658       16.2676      -29.9997       81.9756
          0.6       4800.34       4267.17       3054.21       1755.15       748.154        205.71      -28.9496      -80.2027
     0.604167       4828.35       4301.63       3094.13       1786.62        842.64       433.579       355.994       208.487
     0.608333        4785.7       4270.17        3093.8       1780.48       559.009      -270.356      -369.336      -101.982
       0.6125        4744.6       4238.37       3089.12       1761.68       647.139      -5.19725      -148.782      -89.2681
     0.616667       4689.31       4186.48       3046.38       1395.12       138.786      -334.557       25.8555       80.2952
     0.620833       4644.92          4146       3016.67       1318.67      -9.16189       -529.32      -69.9793       71.3946
        0.625       4605.15       4109.81       2990.21       1227.04      -98.7449      -534.402       25.2213       108.824
     0.629167       4576.32       4085.49       2978.65       1251.77      -23.6871      -418.991       110.384       147.478
     0.633333       4546.78       4060.95       2968.69       1325.63       49.2855      -444.717      -32.3961       68.1056
       0.6375       4511.63       4028.63       2944.85       1235.57      -96.5701       -599.51      -117.246       20.5517
     0.641667       4477.36       3996.93       2921.06       1165.29       -225.81      -763.678      -222.342      -32.4476
     0.645833       4444.81       3967.07       2899.22       1106.38       -353.32      -951.632       -360.63      -85.0526
         0.65       4417.05       3942.37       2883.57       1096.04      -407.241      -1076.78      -488.791      -136.296
     0.654167       4390.85       3919.32       2869.83       1094.44      -434.864      -1155.81       -575.39      -182.378
     0.658333       4365.71       3897.23       2856.67       1089.48       -455.08      -1206.24      -628.534        -200.9
     0.662121       4369.42       3903.91       2866.24       1080.85       -499.56      -1286.06       -699.27      -232.026
     0.665909       4344.32       3881.96       2853.92       1092.36       -465.11      -1240.49      -672.771      -221.251
     0.669697       4322.28       3862.88       2843.99       1103.59       -426.13      -1179.81      -627.191      -208.636
     0.673485       4303.23       3846.85       2837.25       1125.03      -351.022      -1051.92      -528.026       -170.52
     0.677273       4285.45       3831.88       2830.97       1134.01      -318.875      -1000.26      -496.425      -164.886
     0.681061       4268.12       3817.24       2824.81       1140.99      -298.391      -972.688      -485.955      -167.858
     0.684848       4251.27       3802.95       2818.74       1147.35      -276.997      -940.011      -463.265       -164.64
     0.688636       4235.52        3789.7       2813.55       1154.78      -254.274      -905.859      -439.271      -155.944
     0.692424       4220.11       3776.73       2808.52       1162.43      -230.401      -868.312       -407.26       -139.78
     0.696212       4205.26       3764.18       2803.56        1167.2       -212.15      -836.994       -376.82      -124.442
          0.7       4190.89       3752.05       2798.94       1172.64      -193.805      -805.925        -340.6      -102.232
     0.703333       4209.73       3773.58        2821.4       1169.37      -219.844      -837.514      -348.442      -102.563
     0.706667       4193.04       3759.07       2814.72       1180.21      -186.474      -784.064      -291.025      -65.8174
         0.71       4177.22       3745.23       2808.13       1187.66      -162.686      -746.733      -251.201      -39.7048
     0.713333       4163.22       3733.04       2802.69       1194.26      -142.868       -716.09      -216.635       -15.412
     0.716667        4149.8       3721.32       2797.46       1200.18      -125.195      -689.096      -185.958       6.33831
         0.72       4137.16       3710.33       2792.73        1205.7      -109.651      -666.342      -161.341       22.9026
     0.723636       4105.48       3679.73       2771.77       1216.34      -70.3416      -614.539      -127.181       41.0928
     0.727656       4075.58       3650.91       2752.43       1225.78      -36.4956      -571.775      -100.375         55.85
     0.732177       4046.54       3623.09       2734.37       1235.84      -3.83391       -532.66      -79.8233        65.438
     0.737394       4017.19       3595.22       2717.02       1246.87        28.215      -497.187      -65.8797       69.7413
      0.74221       4025.82       3605.85       2731.03       1244.49       4.32083      -535.701      -94.7312       53.9307
     0.746655       4033.49       3615.64       2744.52       1246.25      -8.39042       -557.05      -108.851       45.9903
     0.750759       4039.88        3624.2       2756.89       1249.09      -17.4359      -574.184      -126.741       29.7936
     0.754862       4028.93       3615.17       2754.64       1258.47       1.94776      -550.254      -109.361       38.9272
     0.758624       4035.61       3623.95       2766.76       1259.49      -9.21197      -567.186      -118.674       31.7577
     0.762385        4023.9       3613.93       2763.09       1268.47       11.6129      -539.599      -94.6329       47.2688
     0.766147       4012.22       3603.86       2759.13       1275.17       27.3031      -519.358      -76.1592       59.5098
     0.769908       4002.28       3595.36       2756.26       1281.63       41.7214      -500.046      -54.0451       76.3642
     0.774207       3967.92       3561.93       2732.47       1294.74       86.3925      -444.792      -22.9307       92.5101
     0.778506       3961.28       3556.43       2731.28       1294.41       82.1851      -455.268      -36.3398       83.7407
     0.782805        3954.7       3550.98       2730.13       1295.48       82.2102      -458.037      -39.7426       81.9458
     0.787104       3948.56       3546.39       2731.23        1301.2       88.3937      -454.822       -39.614       81.8074
     0.791402       3941.87       3541.54       2733.11        1310.2       99.8067      -445.918      -35.1753       83.9621
     0.795701       3935.02       3536.11       2732.91       1315.43       107.257       -439.54       -31.009       86.4978
          0.8       3927.99       3530.53       2732.57       1320.45       114.401      -433.493      -26.9034       88.6113
     0.804167       3925.87       3530.07       2736.97       1324.86       116.302      -433.614      -22.8402       93.0114
     0.808333       3918.31       3523.91       2736.04       1330.61        125.89      -423.958       -16.239       96.3887
       0.8125       3911.01       3517.97       2735.15        1335.6       133.657       -416.93      -11.6836       99.1688
     0.816667       3903.83        3512.1       2734.24       1340.16       140.463      -411.293      -8.49748       100.742
     0.820635       3904.63       3514.33       2740.07       1341.02       133.759      -422.985      -14.7197       98.6607
     0.824603       3897.35       3508.36       2739.08        1346.9       143.971      -412.231      -7.11762       102.823
     0.828571        3891.9       3504.33       2740.24       1353.84       153.344        -404.1      -2.08941       105.282
      0.83254       3886.24       3499.97       2740.71       1359.51       161.012      -397.785       1.75263       107.134
     0.836508       3879.12        3493.9       2738.77       1362.51       166.336      -393.073       4.74331       107.385
     0.840476        3870.9       3486.45       2734.68        1363.1       169.605      -389.615       7.62499       109.878
     0.844444       3862.81        3478.9       2729.73       1362.07       171.098      -387.508       9.68693       111.024
     0.848148       3867.27       3484.42       2737.11       1359.06       155.844      -409.478      -3.31753       103.515
     0.851852       3859.87       3477.88       2734.26       1363.33       166.007      -396.877       6.42881       108.477
     0.855556       3852.18       3470.95       2730.82       1365.85        172.57      -389.722        10.365       108.795
     0.859259       3844.05       3463.46       2726.47       1366.85       177.081      -384.845       12.5921        107.03
     0.862963       3836.86       3456.85       2722.78       1368.04       181.439      -380.103       15.4007       107.368
     0.866667       3830.12       3450.74        2719.7       1369.55       185.542       -376.31       16.5016       105.071
      0.87037       3823.27       3444.49       2716.41       1370.86       189.584      -372.395       17.7341       102.677
     0.874074       3816.65       3438.46       2713.25       1372.16       193.466      -368.768       18.5411       99.8027
     0.877778        3809.8       3432.17       2709.82       1373.15       197.127      -365.164       19.6542       98.0203
     0.881481       3803.11       3426.03       2706.45       1374.17       200.898      -361.188       21.7526       98.3177
     0.885185       3796.47       3419.96       2703.25       1375.45       205.049      -356.808        24.167       99.0432
     0.888889       3789.67       3413.77       2700.08       1376.91       209.436      -352.349       26.3338       98.3958
     0.892593       3782.21       3406.87       2696.05       1377.46        213.05      -348.374       28.4221       97.9162
     0.896296        3774.7       3399.79       2691.49       1377.08       215.599      -345.234       30.0766       96.7833
          0.9       3767.32       3392.81       2686.87       1376.44       217.779      -342.376       31.6932       96.1566
     0.904167       3745.19       3370.67       2668.97       1384.15       249.908       -299.53       58.7783       109.241
     0.908333       3738.89       3364.74       2665.13       1380.14       242.633       -311.17       47.7885       102.025
     0.912698       3727.02       3353.19       2656.63        1381.4       251.815      -299.753       53.0482       99.2043
     0.917063        3721.2       3347.84       2653.63       1379.57       248.967      -304.661       49.1242       100.264
     0.921671       3709.23       3336.29       2645.45          1383       262.726      -286.591       61.7487       111.556
     0.926279       3703.43       3331.03       2642.68       1381.49       259.968      -291.948       56.8673       107.326
     0.930886       3697.15       3325.36       2639.69       1381.32       261.097      -291.062       57.5599       106.456
     0.935494       3690.65       3319.48       2636.54       1381.54       263.181      -288.944       59.1453       109.192
     0.939794       3692.03       3321.63       2640.42       1377.64       250.233      -306.328       50.7045        117.46
     0.944095       3685.27       3315.53       2637.27       1381.13       260.488      -291.885       63.0283       122.977
     0.948395       3677.09       3307.98       2632.59       1382.05       265.985      -284.496       68.8726       127.898
     0.952365       3679.46        3311.1       2637.24        1377.4       250.543      -305.859       55.0622       118.106
     0.956029       3682.22       3314.69        2642.6       1376.19       244.025      -311.361       63.5012       172.325
     0.959693       3674.64       3307.64       2638.39        1381.6       260.453      -286.999       86.5687       206.902
     0.963052       3679.85        3313.6       2645.82       1380.97       253.935      -290.272        107.44       340.039
     0.966131       3686.08       3320.67       2654.57       1381.46       246.999      -298.826        106.55       342.448
      0.96921        3677.8       3312.81       2649.44       1387.84       266.835      -269.129       135.358       391.376
     0.972289       3668.68       3303.96       2642.82       1390.14       278.536       -251.65       150.373       412.333
     0.975368       3659.73       3295.19       2635.98       1390.59       286.311      -239.832       159.432        418.87
     0.978887       3635.54       3270.64       2614.28       1398.65       323.254      -191.163       183.969       396.839
     0.982406       3628.53        3263.8       2608.91        1394.2       317.129      -200.803       172.642        378.77
     0.985925       3621.39       3256.89       2603.65       1390.96       314.082      -205.983       163.128       342.872
     0.989443       3614.63       3250.39       2598.84        1388.8       313.312      -207.375       159.051       327.398
     0.992962       3608.12       3244.17       2594.36       1387.27       313.544      -207.466       156.136       312.803
     0.996481       3601.78       3238.12       2590.07        1386.2        314.74      -205.948       155.715       307.434
            1       3595.56       3232.21       2585.92       1385.25       315.881      -204.889       153.817       294.853
       1.0037       3583.89       3220.72       2576.57       1387.84        329.73      -186.341       164.523       297.993
      1.00741       3577.98        3215.1        2572.6        1385.7       327.841      -189.492       160.521        294.27
      1.01127       3567.74       3205.12       2564.65       1386.79       337.026       -177.38       166.405       292.077
      1.01512       3561.57       3199.29       2560.54        1384.4       334.733      -181.081       161.597       284.588
      1.01917       3550.79       3188.83       2552.27       1386.02       345.315       -167.14       168.773       283.644
      1.02321       3544.55       3182.98       2548.22       1383.69       342.953      -171.023       164.138       280.167
      1.02725       3538.26        3177.1       2544.25       1382.45        343.35      -170.619        163.48       280.356
      1.03153       3526.76       3165.97       2535.52       1385.49       357.391       -152.08       174.027       280.337
      1.03556        3525.5       3165.21       2536.16       1378.53           340      -177.339       151.773       252.201
      1.03958       3518.89       3159.06       2532.07        1378.9       344.266      -171.737       153.304       236.756
      1.04361       3511.72       3152.34       2527.36        1378.2       346.281      -169.775       151.265       224.269
      1.04764       3504.81       3145.85       2522.79       1377.72       348.968      -166.217       152.855       222.537
      1.05167       3497.91       3139.35       2518.18       1377.31       352.068       -161.67       156.324       233.587