# Probe 0 (0.8245 0 0.021)
# Probe 1 (0.8245 0 0.061)
# Probe 2 (0.8245 0 0.101)
# Probe 3 (0.8245 0 0.141)
# Probe 4 (0.8035 0 0.162)
# Probe 5 (0.7635 0 0.162)
# Probe 6 (0.7235 0 0.162)
# Probe 7 (0.6835 0 0.162)
#       Probe             0             1             2             3             4             5             6             7
#        Time
   0.00120482       4.16633       4.11532        3.9758       3.62085        3.1695       2.75842       2.50729       2.28738
   0.00265769     -0.245621     -0.243613     -0.238517     -0.225347     -0.206899     -0.187913     -0.172623     -0.159087
   0.00439595      0.974466      0.965533      0.941873      0.873464       0.78332      0.698443      0.644241      0.591528
   0.00647429       1.27458       1.26285         1.232       1.14346       1.02675      0.916727      0.846178      0.778017
    0.0089355        1.2914       1.27957       1.24848        1.1588       1.04048      0.928916      0.857339      0.787861
    0.0118731       1.28384         1.272       1.24089       1.15098       1.03244      0.920828      0.849662      0.780791
    0.0153981       1.29191       1.28005       1.24898        1.1589       1.04003      0.928051      0.856557      0.787123
    0.0196282       1.30318        1.2912       1.25986       1.16877       1.04853      0.935254      0.863028      0.792907
    0.0246515       1.30723       1.29522       1.26383       1.17235        1.0516      0.937887      0.865533      0.795284
    0.0304475       1.29575       1.28384       1.25273       1.16179       1.04176        0.9288      0.857119      0.787375
    0.0374028       1.27603        1.2643       1.23366       1.14379       1.02512      0.913465      0.842719      0.773974
    0.0452274       1.23324       1.22182       1.19202       1.10437      0.988847      0.880463      0.812361      0.746043
    0.0543562       1.17148        1.1604        1.1314       1.04692      0.936686      0.834345       0.77179      0.710172
    0.0657671       1.08211       1.07156       1.04394      0.964078      0.860707       0.76564      0.708993      0.653115
    0.0771781      0.958976      0.949374      0.924248      0.851281      0.757686      0.672682      0.624023       0.57536
     0.088589       1.07494       1.06307       1.03194      0.944335      0.833394       0.73402       0.67909      0.625313
          0.1       1.42788       1.41391       1.37728       1.26849       1.12695      0.996499      0.918709      0.842354
      0.10625       1.00071      0.990663      0.964355      0.882081      0.777647      0.685378      0.638702       0.58973
     0.113462      0.936774      0.926523      0.899548      0.817659      0.714723      0.624684      0.580341       0.53506
     0.120673       1.16874       1.15535       1.12021       1.01726      0.888139      0.774918      0.717765      0.660746
     0.127885       1.59508       1.57637       1.52741        1.3889       1.21616       1.06475      0.986858      0.908278
     0.132692      0.701407      0.693059      0.671445      0.601255      0.516913      0.448618      0.426122      0.397291
      0.13787      0.529869      0.524405       0.51028      0.458061      0.394576      0.342993      0.326338      0.302398
     0.144083       2.30638       2.28153        2.2163       2.02809       1.79105       1.58098       1.47001       1.36003
     0.151072       2.32957       2.30144       2.22775       2.02227       1.76711       1.54436       1.43107       1.31933
     0.156509       1.93961       1.91414       1.84784       1.66228       1.43653        1.2454       1.15925        1.0708
     0.160858     -0.759239     -0.751511     -0.731569     -0.697141     -0.643577     -0.580035     -0.513222     -0.465829
     0.165751      0.773322      0.761935      0.732443      0.641092      0.535124      0.453478      0.434105      0.408359
     0.171459       1.69815       1.67459       1.61307       1.44199       1.23661       1.06591       0.99448      0.920379
     0.177167       2.53327       2.49785       2.40527        2.1546       1.85057         1.593       1.47448       1.35827
     0.181734       1.31795       1.29886       1.24874       1.10058       0.92606      0.786824      0.741407      0.688519
       0.1863      0.731328      0.718854      0.685867      0.584601      0.472549      0.392993       0.38758      0.370152
     0.190867        1.6963       1.67329       1.61272       1.43633       1.22784       1.05983       1.00132      0.934671
     0.195433       2.76462       2.72716       2.62912       2.35763       2.03099       1.75811       1.64044       1.51878
          0.2       3.23761       3.19028       3.06683       2.73607       2.34101       2.01289       1.87271       1.73082
     0.204762      0.913011      0.896764      0.852892      0.720262      0.573884      0.469877      0.461294      0.437067
     0.210053       2.59461       2.55315       2.44409       2.15402       1.81549       1.54402       1.44627        1.3452
     0.216049       2.10531       2.06584       1.96163       1.69222         1.386       1.14993       1.08193       1.00982
     0.221646       2.98745       2.93128       2.78446       2.41625       1.99502       1.66451        1.5543       1.44306
     0.225999      -1.59318      -1.58421      -1.56327      -1.52454      -1.43802      -1.31262       -1.1545      -1.02987
     0.230932       1.81558       1.77547       1.67011       1.40319       1.11061      0.897906      0.860267       0.81289
     0.236688       2.09554       2.04675       1.91912       1.60914       1.26987       1.02148       0.97073      0.912771
     0.242444       3.77975       3.70104       3.49688        3.0096       2.45986       2.03363       1.89477        1.7586
     0.246871      0.478247      0.455714      0.394262      0.229966     0.0757778  -0.000639707     0.0620619     0.0938382
     0.251701        2.8384       2.77108       2.59631       2.17995       1.72643       1.39537       1.32722       1.24969
     0.257068       2.76972        2.6936       2.49748         2.053       1.57844       1.24074       1.18361       1.11859
     0.262434       4.48025       4.36731       4.07873       3.43549       2.73402       2.21252       2.07478       1.93912
     0.266608      0.293773      0.262642      0.180913    -0.0140275     -0.179413     -0.238818     -0.125711    -0.0585282
     0.271378       4.04146       3.93333       3.65829       3.04902       2.39794       1.92971       1.83541       1.73004
     0.277103       5.77129       5.61434       5.21871       4.37557        3.4679       2.80009       2.62737       2.45902
     0.282827      0.684763      0.595345      0.375843    -0.0217234     -0.365339      -0.52154     -0.388516     -0.290323
      0.28712       1.03525      0.949035      0.739535      0.344097   -0.00100221     -0.161367    -0.0328358     0.0463031
     0.291414        4.0626       3.89913       3.50088       2.73016       1.96238       1.46092       1.43383       1.38459
     0.295707       5.77465       5.55094        5.0098       3.98494       2.95053       2.25119       2.15569       2.04998
          0.3       6.19971       5.93019       5.28696       4.12278       2.96986       2.20768       2.12281       2.02662
     0.304545     0.0969101    -0.0114039     -0.256073      -0.62995     -0.888138     -0.924726     -0.669367     -0.494886
     0.309848       4.28108       4.02991       3.44707       2.48192       1.58984       1.06419       1.11398        1.1343
     0.315859       6.66761       6.28732       5.41433       4.01796       2.70821       1.89646       1.86634       1.82934
     0.320808       6.93672        6.4841        5.4696       3.91635       2.49585       1.64431       1.65157       1.62752
     0.325208      0.925877      0.663036      0.115151      -0.55029     -0.978044      -1.03346     -0.662268     -0.410149
     0.330194       7.07485       6.53428       5.36248       3.72326       2.30039       1.50845        1.5923        1.6312
     0.335563       10.3838       9.59944       7.91658       5.63019       3.63134       2.47825       2.48654       2.47468
     0.340166       5.39691       4.75168       3.43883       1.84387      0.610928     0.0634884      0.352183        0.5264
     0.345152       3.27812       2.61187       1.30107    -0.0747095      -0.97949      -1.21213     -0.746411     -0.413883
     0.350637       9.55166        8.4549       6.26935       3.79638       1.88458      0.976922       1.22651       1.40552
     0.356122       14.3085       12.6936       9.52692       6.04913       3.34671       2.00584       2.20361       2.35074
      0.36051       1.51579      0.806023      -0.47379      -1.57251      -2.07346      -1.93354      -1.24457      -0.81078
     0.365446        8.1019        6.7914       4.30804       1.87997      0.261995      -0.26809      0.258105      0.621772
     0.371205       13.8056       11.7924        8.0173       4.39604       1.88705      0.887245       1.33655       1.67536
     0.376004       19.2881       16.4433       11.1668        6.2266       2.81091       1.40552       1.86377       2.19548
     0.380003      -2.78784      -2.90754      -3.32795      -3.77596      -3.69358      -3.08367      -2.10466      -1.51425
     0.385003        11.105       9.11666       5.37621       2.05362        0.0373     -0.459433      0.272595      0.786262
     0.390002       16.3837       13.2543       7.60686        3.0118      0.334949     -0.312453      0.498538       1.09782
     0.395001       23.1955       18.7983       10.9302       4.57948      0.738824     -0.466712      0.173708      0.574917
          0.4       3.14471       2.27896      0.446054      -1.23629      -1.98985      -1.75406     -0.856516     -0.320118
     0.404545       17.1848       12.5692       5.58916       1.29867     -0.591629     -0.618007      0.315765      0.910881
     0.408523       25.7896        18.228       7.44358       1.55814     -0.815327     -0.813407      0.239463       0.92644
     0.412041       36.9154       26.3879       11.4067       3.24995     -0.212419     -0.538497      0.554929       1.27157
     0.415299        60.051       45.3803       23.8853       10.4614       2.94638     0.0126757    -0.0541165     -0.566447
     0.418981       65.1442       41.1246       12.6731       2.34184     -0.481775     -0.724897     -0.041653      0.309631
     0.423032       79.3283       44.9423       7.57998      -2.17347      -2.54711      -1.48032     -0.309083      0.388177
      0.42756       155.424       87.4439       15.5852      -1.74196      -2.18223      -1.21866       0.04266      0.859913
     0.432087       257.076       146.426       30.3453       2.00595     -0.258977      -0.96267     -0.515849     -0.632427
     0.436938       368.714       208.019       40.5172       1.21523     -0.633297      -1.00961     -0.224457     0.0603441
     0.441789        515.33       292.373       58.1207       2.00602      -1.06018      -1.19099    -0.0891797      0.528082
      0.44664        9388.4       5433.24        1182.2       97.7158       1.80352      -0.54552      0.662956       1.43281
     0.451087       7156.72       4230.63        1004.2       113.221      -2.01411      -2.18655      -1.19551      -1.24949
     0.455533       5669.53       3466.09       929.423       141.207      -4.63922       -3.1101       -1.5206     -0.890358
      0.45998       5388.32       3387.52       993.923       178.616      -4.83328      -3.25117      -1.57077     -0.627698
     0.464427       6558.07       4904.91       2207.44       683.884        51.356      -2.53535      -1.06338    -0.0202063
     0.468379       6839.01       5302.84       2611.58       916.532       124.182      -1.84714      -1.01881       -1.3243
     0.472897       6066.33        4804.3       2537.41       992.493       190.165      -3.69483      -1.87573      -1.25749
     0.477414       5933.65       4814.58        2713.3       1148.75       261.326      -4.66471      -2.46479      -1.26782
     0.481931       5865.39       4858.19       2891.86       1302.62       331.368      -6.43874      -3.82886      -2.02016
     0.485545       6120.58       5154.01       3174.47       1474.64       393.642      -4.49299      -3.32542      -3.00016
     0.489159       6011.98        5122.2       3222.08       1531.21       433.411       16.4689       5.72868       1.58201
     0.492772       5928.65       5096.03       3257.01       1588.19       485.049       46.9081       8.09228       0.24108
     0.496386       5862.19       5074.36       3279.37       1642.83       548.591       95.2361       15.6488      0.974532
          0.5       5811.88       5061.46       3299.65       1699.39       620.059       153.205       24.9165       1.85447
        0.504       5684.59       4978.83       3278.28       1751.48       708.247       227.764       37.3117       3.18419
     0.508571       5603.93        4948.2       3328.39       1878.16       850.295       323.995       52.6994       5.07464
     0.513651       5681.18       5099.27       3629.35       2233.27       1134.34       466.455       83.8777       7.65246
     0.518448       5870.68       5341.49       3955.81       2545.43       1367.85       605.637       151.758       28.3708
      0.52274       5991.36       5491.45       4132.78       2709.76       1513.28       735.551       235.452       57.8462
     0.527569       5842.94       5376.35       4084.85       2732.86       1608.91       881.201       341.623       95.4004
     0.533141       5705.15       5269.79       4042.09       2753.57       1709.82       1051.32       478.163       144.705
     0.537319       5874.23       5449.95       4216.75        2881.6       1821.51       1181.96       589.965       184.628
     0.541498       5776.08       5372.29       4180.62       2884.58       1898.08          1341       739.869       244.764
     0.546373       5592.81       5214.54        4087.2       2854.45       1941.43       1451.56       869.504        320.08
     0.551248       5545.83       5185.55       4094.13        2878.3          1986       1526.61       988.712       410.393
     0.556123       5505.31       5162.22        4104.7       2902.62       2020.72       1579.66       1092.39       499.138
     0.560511       5523.83       5193.85       4154.73       2946.08       2054.49       1617.62       1179.57       579.453
     0.565447       5422.52       5112.89       4123.18       2932.26        1881.9       1202.23       823.268       483.419
     0.569766       5469.22       5169.86        4195.4        2994.7       1986.88       1392.68       1050.97       609.701
     0.574805          5335       5051.44       4121.82       2965.21       2067.27       1619.04       1345.09       784.426
     0.579844       5294.63       5022.48       4118.96       2973.51       2049.99       1562.48        1324.7       805.585
     0.584883       5250.55       4989.58       4110.82       2978.76       2050.62        1561.2        1403.5       907.475
     0.589922       5193.51       4941.33        4081.2       2968.59       2076.04       1625.71       1464.05       931.057
     0.594961       5144.83       4901.78       4060.98          2956       1924.39       1269.67       1192.61       898.297
          0.6        5094.1       4860.55       4041.64       2958.08       2017.59       1459.51       1218.33       767.161
     0.604167       5122.11       4895.06       4082.12       2990.65       2107.75       1676.36       1612.83       1076.53
     0.608333       5079.47        4863.6       4081.78       2983.71       1814.47       951.236       881.929        777.11
       0.6125       5038.37        4831.8       4077.11       2962.92       1896.88       1207.09       1104.49       799.697
     0.616667       4983.08       4779.91       4034.37       2601.58        1391.8       872.427       1276.46       974.734
     0.620833       4938.69       4739.43       4004.66       2534.43       1252.59       674.498          1172       967.055
        0.625       4898.92       4703.24        3978.2       2459.77       1186.37       682.154       1260.97       1011.68
     0.629167       4870.08       4678.92       3966.64       2508.75       1294.33       814.389       1331.16       1032.67
     0.633333       4840.55       4654.38       3956.68       2606.61       1401.12       808.055       1173.51       940.468
       0.6375        4805.4       4622.06       3932.85       2532.77          1279       667.626       1075.62        880.14
     0.641667       4771.12       4590.36       3909.05          2470        1162.2       512.357       961.291       818.631
     0.645833       4738.58       4560.49       3887.21       2411.09       1037.46       328.874       817.837        751.43
         0.65       4710.81       4535.79       3871.56       2400.75       988.942       214.988       690.941       691.577
     0.654167       4684.61       4512.75       3857.83       2399.15       969.482        154.43       612.722       647.053
     0.658333       4659.48       4490.66       3844.66       2394.18       957.469        123.02       569.431       617.526
     0.662121       4663.19       4497.34       3854.24       2385.55       920.553       61.3769       510.894       584.849
     0.665909       4638.09       4475.39       3841.92       2397.06        962.89       126.434       552.662        597.81
     0.669697       4616.04       4456.31       3831.98        2408.3       1011.07       210.326       618.635       621.008
     0.673485          4597       4440.28       3825.25       2429.74       1095.87        363.01       741.161       663.067
     0.677273       4579.22       4425.31       3818.96       2438.71       1137.35       438.927       797.455       677.526
     0.681061       4561.88       4410.67        3812.8        2445.7       1166.51       489.486        833.16       686.481
     0.684848       4545.03       4396.38       3806.73       2452.05       1195.83       543.543       881.305       705.124
     0.688636       4529.29       4383.13       3801.54       2459.49       1225.59       597.097       930.274       727.506
     0.692424       4513.88       4370.16       3796.51       2467.13       1255.53       651.803       986.374       759.023
     0.696212       4499.03       4357.61       3791.55        2471.9       1278.78       697.786       1039.54       790.669
          0.7       4484.65       4345.48       3786.93       2477.35       1301.04       740.877        1096.7       830.636
     0.703333        4503.5       4367.01        3809.4       2474.07       1277.65       717.855       1105.54       843.772
     0.706667        4486.8        4352.5       3802.71       2484.92       1312.99       778.134       1178.07       893.814
         0.71       4470.99       4338.66       3796.13       2492.37       1338.15       820.795       1231.68       933.219
     0.713333       4456.99       4326.46       3790.68       2498.96       1358.86       855.517       1278.85        970.79
     0.716667       4443.56       4314.75       3785.45       2504.89       1377.05       885.605       1321.15       1005.26
         0.72       4430.92       4303.75       3780.72       2510.41       1392.84       910.758       1356.76        1034.4
     0.723636       4399.24       4273.16       3759.77       2521.05       1432.24       964.667       1402.43       1066.12
     0.727656       4369.34       4244.34       3740.42       2530.48        1466.1       1009.45       1441.46       1095.43
     0.732177       4340.31       4216.52       3722.37       2540.55       1498.76       1050.63        1475.1       1120.65
     0.737394       4310.95       4188.65       3705.01       2551.57        1530.8       1088.27       1503.04       1141.63
      0.74221       4319.58       4199.28       3719.02       2549.19       1506.91        1051.5       1485.74       1139.54
     0.746655       4327.25       4209.07       3732.51       2550.96       1494.21       1031.15       1478.33       1139.72
     0.750759       4333.64       4217.63       3744.89       2553.79       1485.18       1014.17       1461.61       1125.25
     0.754862       4322.69        4208.6       3742.63       2563.17       1504.59       1038.06       1478.96       1134.61
     0.758624       4329.37       4217.38       3754.75       2564.19       1493.46        1021.1       1469.61       1127.44
     0.762385       4317.67       4207.36       3751.08       2573.18       1514.32       1048.66       1493.63       1143.08
     0.766147       4305.99       4197.29       3747.12       2579.87       1530.06       1068.88       1512.08       1155.36
     0.769908       4296.05       4188.79       3744.26       2586.34       1544.54       1088.18       1534.18       1172.36
     0.774207       4261.69       4155.36       3720.47       2599.44       1589.28       1143.42       1565.28       1188.64
     0.778506       4255.05       4149.86       3719.28       2599.12       1585.16       1132.93       1551.86       1179.97
     0.782805       4248.46       4144.41       3718.12       2600.19       1585.27       1130.16       1548.46       1178.24
     0.787104       4242.32       4139.82       3719.22        2605.9       1591.56       1133.38       1548.59       1178.12
     0.791402       4235.63       4134.97       3721.11        2614.9       1603.08       1142.29       1553.03       1180.28
     0.795701       4228.78       4129.54        3720.9       2620.13       1610.64       1148.68       1557.21       1182.82
          0.8       4221.76       4123.96       3720.56       2625.16       1617.91       1154.74       1561.33       1184.93
     0.804167       4219.63        4123.5       3724.96       2629.56       1619.93       1154.64       1565.41       1189.35
     0.808333       4212.07       4117.34       3724.03       2635.31       1629.65       1164.32       1572.04        1192.8
       0.8125       4204.77        4111.4       3723.15       2640.31       1637.55       1171.37       1576.62       1195.79
     0.816667       4197.59       4105.53       3722.23       2644.87       1644.49       1177.04       1579.83       1197.78
     0.820635       4198.39       4107.76       3728.07       2645.72       1637.92       1165.38       1573.64        1196.4
     0.824603       4191.11       4101.79       3727.07       2651.61       1648.26       1176.16       1581.28       1201.69
     0.828571       4185.66       4097.76       3728.23       2658.54       1657.77       1184.33       1586.34       1205.86
      0.83254          4180        4093.4        3728.7       2664.22       1665.58       1190.68       1590.22       1210.21
     0.836508       4172.88       4087.33       3726.76       2667.21       1671.04       1195.43       1593.25       1213.96
     0.840476       4164.66       4079.88       3722.67        2667.8       1674.45       1198.93       1596.17       1221.13
     0.844444       4156.57       4072.33       3717.72       2666.78       1676.08       1201.08       1598.28       1228.46
     0.848148       4161.03       4077.85        3725.1       2663.76       1660.95       1179.15       1585.31       1228.48
     0.851852       4153.63        4071.3       3722.26       2668.04       1671.24       1191.79        1595.1       1242.96
     0.855556       4145.94       4064.38       3718.81       2670.55       1677.93       1198.99       1599.08       1254.63
     0.859259       4137.82       4056.89       3714.47       2671.56       1682.56       1203.91       1601.34       1265.37
     0.862963       4130.63       4050.28       3710.78       2672.75       1687.04       1208.69       1604.19       1278.84
     0.866667       4123.88       4044.17       3707.69       2674.25       1691.26       1212.52       1605.33       1289.82
      0.87037       4117.03       4037.92        3704.4       2675.56       1695.42       1216.47        1606.6       1300.33
     0.874074       4110.42       4031.89       3701.25       2676.86       1699.42       1220.13       1607.44       1309.82
     0.877778       4103.56        4025.6       3697.81       2677.85       1703.19       1223.77       1608.59       1319.83
     0.881481       4096.87       4019.46       3694.45       2678.87       1707.07       1227.78       1610.72       1331.39
     0.885185       4090.23       4013.39       3691.24       2680.16       1711.33       1232.19       1613.17       1342.88
     0.888889       4083.44        4007.2       3688.07       2681.62       1715.82       1236.68       1615.36       1352.54
     0.892593       4075.97        4000.3       3684.04       2682.16       1719.52       1240.68       1617.47       1361.93
     0.896296       4068.46       3993.22       3679.48       2681.78       1722.15       1243.84       1619.15       1370.24
          0.9       4061.08       3986.24       3674.86       2681.15        1724.4       1246.71       1620.78       1378.65
     0.904167       4038.96        3964.1       3656.97       2688.86        1756.6       1289.57       1647.88       1401.38
     0.908333       4032.66       3958.16       3653.12       2684.85        1749.4       1277.94        1636.9       1403.36
     0.912698       4020.79       3946.61       3644.62       2686.11       1758.64       1289.36       1642.16       1409.68
     0.917063       4014.96       3941.27       3641.63       2684.28       1755.86       1284.45       1638.24       1419.49
     0.921671          4003       3929.72       3633.44       2687.71       1769.68       1302.52       1650.86       1439.54
     0.926279       3997.19       3924.46       3630.67        2686.2       1766.99       1297.17       1645.98       1443.67
     0.930886       3990.92       3918.79       3627.69       2686.03       1768.18       1298.05       1646.67       1450.96
     0.935494       3984.42       3912.91       3624.54       2686.25       1770.33       1300.17       1648.26       1461.76
     0.939794        3985.8       3915.06       3628.41       2682.34       1757.44       1282.79       1639.82       1477.45
     0.944095       3979.04       3908.96       3625.26       2685.84       1767.76       1297.23       1652.14       1490.11
     0.948395       3970.86       3901.41       3620.59       2686.76       1773.32       1304.62       1657.99       1501.93
     0.952365       3973.23       3904.53       3625.23       2682.11       1757.93       1283.25       1644.18       1498.28
     0.956029       3975.99       3908.12       3630.59        2680.9       1751.47       1277.75       1652.61       1557.98
     0.959693        3968.4       3901.07       3626.38       2686.31       1767.95       1302.12       1675.68       1597.51
     0.963052       3973.62       3907.03       3633.81       2685.67       1761.48       1298.84       1696.56       1734.68
     0.966131       3979.85        3914.1       3642.56       2686.16        1754.6       1290.29       1695.67       1739.82
      0.96921       3971.57       3906.24       3637.43       2692.55       1774.49       1319.99       1724.48       1790.63
     0.972289       3962.44       3897.39       3630.81       2694.85       1786.24       1337.47       1739.49       1812.65
     0.975368       3953.49       3888.62       3623.97       2695.29       1794.07       1349.29       1748.56       1819.48
     0.978887       3929.31       3864.06       3602.27       2703.36       1831.08       1397.97        1773.1       1796.94
     0.982406        3922.3       3857.23        3596.9        2698.9       1825.02       1388.33       1761.78       1777.85
     0.985925       3915.15       3850.32       3591.64       2695.67       1822.04       1383.16       1752.27       1740.54
     0.989443        3908.4       3843.82       3586.83       2693.51       1821.33       1381.78        1748.2       1723.51
     0.992962       3901.89        3837.6       3582.35       2691.97       1821.62       1381.69        1745.3       1707.31
     0.996481       3895.55       3831.55       3578.07       2690.91       1822.87       1383.22       1744.88       1700.37
            1       3889.32       3825.63       3573.91       2689.96       1824.06       1384.28       1742.99       1686.24
       1.0037       3877.65       3814.14       3564.56       2692.55       1837.96       1402.84        1753.7       1687.88
      1.00741       3871.74       3808.53       3560.59       2690.41       1836.13        1399.7       1749.71       1682.79
      1.01127       3861.51       3798.55       3552.64        2691.5       1845.36       1411.81        1755.6       1679.26
      1.01512       3855.33       3792.72       3548.53       2689.11       1843.12       1408.12        1750.8       1670.63
      1.01917       3844.56       3782.25       3540.26       2690.73       1853.76       1422.07       1757.98       1668.64
      1.02321       3838.32        3776.4       3536.21       2688.39       1851.45       1418.19       1753.35       1664.36
      1.02725       3832.03       3770.53       3532.24       2687.15        1851.9        1418.6        1752.7       1663.89
      1.03153       3820.52        3759.4       3523.51       2690.19       1866.01       1437.15       1763.25       1663.34
      1.03556       3819.27       3758.64       3524.15       2683.23       1848.68       1411.89       1741.01       1634.96
      1.03958       3812.65       3752.49       3520.06       2683.61       1853.01        1417.5       1742.54       1619.42
      1.04361       3805.49       3745.77       3515.35        2682.9        1855.1       1419.47       1740.51       1607.27
      1.04764       3798.58       3739.28       3510.78       2682.43       1857.86       1423.04       1742.11       1606.25
      1.05167       3791.67       3732.78       3506.17       2682.02       1861.03       1427.59       1745.59       1618.37