# Solver information
# Time        	p_rgh_solver  	p_rgh_initial 	p_rgh_final   	p_rgh_iters   	p_rgh_converged
0.00120482    	DICPCG	1.000000e+00	4.871660e-02	1	true
0.00265769    	DICPCG	1.172490e-03	5.036580e-05	14	true
0.00439595    	DICPCG	5.267740e-04	2.335030e-05	12	true
0.00647429    	DICPCG	4.671010e-04	1.673690e-05	3	true
0.0089355     	DICPCG	6.229530e-04	1.922780e-05	2	true
0.0118731     	DICPCG	8.967890e-04	2.236440e-05	2	true
0.0153981     	DICPCG	1.284290e-03	2.906830e-05	2	true
0.0196282     	DICPCG	1.816780e-03	3.782470e-05	2	true
0.0246515     	DICPCG	2.530090e-03	4.798920e-05	2	true
0.0304475     	DICPCG	3.410010e-03	5.963850e-05	2	true
0.0374028     	DICPCG	4.741820e-03	7.842570e-05	2	true
0.0452274     	DICPCG	6.249760e-03	9.973320e-05	2	true
0.0543562     	DICPCG	8.666110e-03	4.277200e-04	1	true
0.0657671     	DICPCG	1.269520e-02	6.069940e-04	1	true
0.0771781     	DICPCG	1.496630e-02	7.237910e-04	1	true
0.088589      	DICPCG	1.698060e-02	8.224310e-04	1	true
0.1           	DICPCG	1.911810e-02	3.627400e-04	2	true
0.10625       	DICPCG	1.179350e-02	2.315090e-04	2	true
0.113462      	DICPCG	1.291260e-02	2.102130e-04	2	true
0.120673      	DICPCG	1.471060e-02	2.585100e-04	2	true
0.127885      	DICPCG	1.476020e-02	2.345130e-04	2	true
0.132692      	DICPCG	1.017300e-02	2.393710e-04	2	true
0.13787       	DICPCG	1.095600e-02	2.420200e-04	2	true
0.144083      	DICPCG	1.595090e-02	3.594340e-04	2	true
0.151072      	DICPCG	1.625840e-02	3.227430e-04	2	true
0.156509      	DICPCG	1.304250e-02	2.734820e-04	2	true
0.160858      	DICPCG	1.048740e-02	4.088420e-04	2	true
0.165751      	DICPCG	1.140030e-02	2.340830e-04	2	true
0.171459      	DICPCG	1.311130e-02	2.455230e-04	2	true
0.177167      	DICPCG	1.472580e-02	3.196460e-04	2	true
0.181734      	DICPCG	1.166550e-02	3.219370e-04	2	true
0.1863        	DICPCG	1.040500e-02	2.286050e-04	2	true
0.190867      	DICPCG	1.081450e-02	2.820990e-04	2	true
0.195433      	DICPCG	1.217900e-02	3.049600e-04	2	true
0.2           	DICPCG	1.187220e-02	2.743770e-04	2	true
0.204762      	DICPCG	1.220080e-02	3.706880e-04	2	true
0.210053      	DICPCG	1.295970e-02	2.631120e-04	2	true
0.216049      	DICPCG	1.384340e-02	2.877780e-04	2	true
0.221646      	DICPCG	1.375120e-02	2.563920e-04	2	true
0.225999      	DICPCG	1.061540e-02	3.694420e-04	2	true
0.230932      	DICPCG	1.156420e-02	2.568720e-04	2	true
0.236688      	DICPCG	1.299480e-02	2.415200e-04	2	true
0.242444      	DICPCG	1.306040e-02	6.328800e-04	1	true
0.246871      	DICPCG	1.041130e-02	3.058090e-04	2	true
0.251701      	DICPCG	1.120290e-02	2.459570e-04	2	true
0.257068      	DICPCG	1.305550e-02	2.817390e-04	2	true
0.262434      	DICPCG	1.247700e-02	2.266960e-04	2	true
0.266608      	DICPCG	1.015160e-02	3.237270e-04	2	true
0.271378      	DICPCG	1.202440e-02	2.774420e-04	2	true
0.277103      	DICPCG	1.388030e-02	2.568230e-04	2	true
0.282827      	DICPCG	1.315860e-02	6.476770e-04	1	true
0.28712       	DICPCG	9.825060e-03	4.545880e-04	1	true
0.291414      	DICPCG	1.017110e-02	2.078940e-04	2	true
0.295707      	DICPCG	1.036380e-02	1.871400e-04	2	true
0.3           	DICPCG	1.029520e-02	1.796890e-04	2	true
0.304545      	DICPCG	1.080160e-02	2.920520e-04	2	true
0.309848      	DICPCG	1.182410e-02	5.290270e-04	1	true
0.315859      	DICPCG	1.301440e-02	5.239370e-04	1	true
0.320808      	DICPCG	1.202330e-02	2.373370e-04	2	true
0.325208      	DICPCG	1.089490e-02	2.403350e-04	2	true
0.330194      	DICPCG	1.225830e-02	2.707720e-04	2	true
0.335563      	DICPCG	1.297920e-02	2.262110e-04	2	true
0.340166      	DICPCG	1.107330e-02	2.628640e-04	2	true
0.345152      	DICPCG	1.153740e-02	5.024910e-04	1	true
0.350637      	DICPCG	1.264610e-02	5.602360e-04	1	true
0.356122      	DICPCG	1.251280e-02	5.274350e-04	1	true
0.36051       	DICPCG	1.005360e-02	4.728100e-04	1	true
0.365446      	DICPCG	1.109560e-02	4.935500e-04	1	true
0.371205      	DICPCG	1.363840e-02	6.703010e-04	1	true
0.376004      	DICPCG	1.165110e-02	2.030610e-04	2	true
0.380003      	DICPCG	9.677200e-03	3.219560e-04	2	true
0.385003      	DICPCG	1.132030e-02	5.404160e-04	1	true
0.390002      	DICPCG	1.162010e-02	5.394840e-04	1	true
0.395001      	DICPCG	1.147360e-02	5.112980e-04	1	true
0.4           	DICPCG	1.140840e-02	5.029400e-04	1	true
0.404545      	DICPCG	1.089790e-02	2.133640e-04	2	true
0.408523      	DICPCG	9.414370e-03	1.774770e-04	2	true
0.412041      	DICPCG	8.104860e-03	3.894410e-04	1	true
0.415299      	DICPCG	7.607360e-03	3.059900e-04	2	true
0.418981      	DICPCG	8.445320e-03	2.198810e-04	2	true
0.423032      	DICPCG	8.849960e-03	4.086630e-04	1	true
0.42756       	DICPCG	1.017570e-02	1.748920e-04	2	true
0.432087      	DICPCG	9.312430e-03	4.277540e-04	1	true
0.436938      	DICPCG	9.668330e-03	3.340930e-04	1	true
0.441789      	DICPCG	1.007520e-02	4.034640e-04	1	true
0.44664       	DICPCG	1.059350e-02	4.045680e-04	1	true
0.451087      	DICPCG	9.542470e-03	3.381650e-04	1	true
0.455533      	DICPCG	9.254230e-03	2.927560e-04	1	true
0.45998       	DICPCG	9.280140e-03	2.744680e-04	1	true
0.464427      	DICPCG	9.308510e-03	2.956610e-04	1	true
0.468379      	DICPCG	8.724050e-03	3.173310e-04	1	true
0.472897      	DICPCG	1.005130e-02	3.641820e-04	1	true
0.477414      	DICPCG	1.052170e-02	4.551350e-04	1	true
0.481931      	DICPCG	1.066510e-02	4.617030e-04	1	true
0.485545      	DICPCG	8.547940e-03	3.748670e-04	1	true
0.489159      	DICPCG	8.328930e-03	3.025750e-04	1	true
0.492772      	DICPCG	8.320760e-03	3.186710e-04	1	true
0.496386      	DICPCG	8.449920e-03	3.242180e-04	1	true
0.5           	DICPCG	8.815030e-03	3.955620e-04	1	true
0.504         	DICPCG	9.793260e-03	4.384500e-04	1	true
0.508571      	DICPCG	1.103990e-02	4.557540e-04	1	true
0.513651      	DICPCG	1.217920e-02	4.518270e-04	1	true
0.518448      	DICPCG	1.144420e-02	4.195560e-04	1	true
0.52274       	DICPCG	1.076190e-02	4.741530e-04	1	true
0.527569      	DICPCG	1.230350e-02	5.799870e-04	1	true
0.533141      	DICPCG	1.397650e-02	6.277310e-04	1	true
0.537319      	DICPCG	1.039790e-02	4.364650e-04	1	true
0.541498      	DICPCG	1.016670e-02	3.953900e-04	1	true
0.546373      	DICPCG	1.215340e-02	5.337260e-04	1	true
0.551248      	DICPCG	1.221100e-02	5.219340e-04	1	true
0.556123      	DICPCG	1.213560e-02	5.162970e-04	1	true
0.560511      	DICPCG	1.076230e-02	4.436480e-04	1	true
0.565447      	DICPCG	1.278690e-02	2.314840e-04	2	true
0.569766      	DICPCG	1.102870e-02	5.217510e-04	1	true
0.574805      	DICPCG	1.251490e-02	5.576730e-04	1	true
0.579844      	DICPCG	1.273850e-02	6.338220e-04	1	true
0.584883      	DICPCG	1.234890e-02	5.725710e-04	1	true
0.589922      	DICPCG	1.251810e-02	2.203070e-04	2	true
0.594961      	DICPCG	1.177080e-02	5.455850e-04	1	true
0.6           	DICPCG	1.120140e-02	5.481100e-04	1	true
0.604167      	DICPCG	9.379850e-03	3.480440e-04	1	true
0.608333      	DICPCG	9.410580e-03	3.458130e-04	1	true
0.6125        	DICPCG	9.553870e-03	3.564270e-04	1	true
0.616667      	DICPCG	9.671710e-03	3.613060e-04	1	true
0.620833      	DICPCG	9.635940e-03	3.467190e-04	1	true
0.625         	DICPCG	9.697020e-03	3.457390e-04	1	true
0.629167      	DICPCG	9.948610e-03	3.813670e-04	1	true
0.633333      	DICPCG	1.008890e-02	4.163760e-04	1	true
0.6375        	DICPCG	1.017020e-02	4.218940e-04	1	true
0.641667      	DICPCG	1.019290e-02	4.071700e-04	1	true
0.645833      	DICPCG	1.019260e-02	3.544530e-04	1	true
0.65          	DICPCG	1.005150e-02	3.144580e-04	1	true
0.654167      	DICPCG	1.001900e-02	2.988360e-04	1	true
0.658333      	DICPCG	1.038510e-02	3.413680e-04	1	true
0.662121      	DICPCG	9.445270e-03	3.008620e-04	1	true
0.665909      	DICPCG	9.691090e-03	3.525630e-04	1	true
0.669697      	DICPCG	1.003940e-02	3.797130e-04	1	true
0.673485      	DICPCG	9.736120e-03	3.408240e-04	1	true
0.677273      	DICPCG	9.965550e-03	3.853230e-04	1	true
0.681061      	DICPCG	1.008930e-02	4.213910e-04	1	true
0.684848      	DICPCG	9.921520e-03	3.907030e-04	1	true
0.688636      	DICPCG	9.731510e-03	3.777490e-04	1	true
0.692424      	DICPCG	9.687120e-03	3.573390e-04	1	true
0.696212      	DICPCG	1.010030e-02	4.089870e-04	1	true
0.7           	DICPCG	1.006680e-02	4.024750e-04	1	true
0.703333      	DICPCG	8.856600e-03	3.390120e-04	1	true
0.706667      	DICPCG	8.654250e-03	3.136720e-04	1	true
0.71          	DICPCG	9.061120e-03	4.182290e-04	1	true
0.713333      	DICPCG	8.842000e-03	4.162120e-04	1	true
0.716667      	DICPCG	8.756320e-03	3.780540e-04	1	true
0.72          	DICPCG	8.749510e-03	3.686460e-04	1	true
0.723636      	DICPCG	9.788870e-03	4.339360e-04	1	true
0.727656      	DICPCG	1.043380e-02	4.008700e-04	1	true
0.732177      	DICPCG	1.181260e-02	5.180120e-04	1	true
0.737394      	DICPCG	1.270310e-02	5.197970e-04	1	true
0.74221       	DICPCG	1.067060e-02	3.235800e-04	1	true
0.746655      	DICPCG	1.037490e-02	3.647560e-04	1	true
0.750759      	DICPCG	9.811790e-03	3.081460e-04	1	true
0.754862      	DICPCG	9.955430e-03	3.055720e-04	1	true
0.758624      	DICPCG	9.078370e-03	2.778930e-04	1	true
0.762385      	DICPCG	8.998020e-03	2.535460e-04	1	true
0.766147      	DICPCG	8.853820e-03	2.397940e-04	1	true
0.769908      	DICPCG	8.860060e-03	2.566050e-04	1	true
0.774207      	DICPCG	1.041420e-02	3.333680e-04	1	true
0.778506      	DICPCG	1.050450e-02	3.306210e-04	1	true
0.782805      	DICPCG	1.070970e-02	3.222100e-04	1	true
0.787104      	DICPCG	1.090860e-02	3.454330e-04	1	true
0.791402      	DICPCG	1.067430e-02	3.073410e-04	1	true
0.795701      	DICPCG	1.048610e-02	3.077970e-04	1	true
0.8           	DICPCG	1.094490e-02	3.902210e-04	1	true
0.804167      	DICPCG	1.088910e-02	3.697440e-04	1	true
0.808333      	DICPCG	1.076360e-02	3.337490e-04	1	true
0.8125        	DICPCG	1.085660e-02	3.298410e-04	1	true
0.816667      	DICPCG	1.113260e-02	3.530050e-04	1	true
0.820635      	DICPCG	1.086150e-02	3.803570e-04	1	true
0.824603      	DICPCG	1.051260e-02	3.650750e-04	1	true
0.828571      	DICPCG	1.050670e-02	3.574570e-04	1	true
0.83254       	DICPCG	1.052680e-02	3.919080e-04	1	true
0.836508      	DICPCG	1.108300e-02	4.370960e-04	1	true
0.840476      	DICPCG	1.099480e-02	3.993400e-04	1	true
0.844444      	DICPCG	1.072930e-02	3.700340e-04	1	true
0.848148      	DICPCG	1.020640e-02	3.980650e-04	1	true
0.851852      	DICPCG	1.015790e-02	3.791980e-04	1	true
0.855556      	DICPCG	9.962310e-03	3.489010e-04	1	true
0.859259      	DICPCG	9.986940e-03	3.794480e-04	1	true
0.862963      	DICPCG	9.924360e-03	3.667080e-04	1	true
0.866667      	DICPCG	9.768670e-03	3.722890e-04	1	true
0.87037       	DICPCG	9.740560e-03	3.835900e-04	1	true
0.874074      	DICPCG	9.890830e-03	4.315570e-04	1	true
0.877778      	DICPCG	8.960430e-03	3.587270e-04	1	true
0.881481      	DICPCG	8.572700e-03	2.529900e-04	1	true
0.885185      	DICPCG	8.708510e-03	2.671790e-04	1	true
0.888889      	DICPCG	8.802300e-03	2.600780e-04	1	true
0.892593      	DICPCG	8.754330e-03	2.604310e-04	1	true
0.896296      	DICPCG	8.822380e-03	2.649390e-04	1	true
0.9           	DICPCG	8.552300e-03	2.333170e-04	1	true
0.904167      	DICPCG	9.561080e-03	2.763220e-04	1	true
0.908333      	DICPCG	1.012710e-02	3.326620e-04	1	true
0.912698      	DICPCG	1.051850e-02	3.296860e-04	1	true
0.917063      	DICPCG	1.052970e-02	2.929360e-04	1	true
0.921671      	DICPCG	1.108280e-02	3.027720e-04	1	true
0.926279      	DICPCG	1.103330e-02	2.716680e-04	1	true
0.930886      	DICPCG	1.097040e-02	2.819550e-04	1	true
0.935494      	DICPCG	1.129640e-02	3.498860e-04	1	true
0.939794      	DICPCG	1.097010e-02	3.501050e-04	1	true
0.944095      	DICPCG	1.136510e-02	3.727460e-04	1	true
0.948395      	DICPCG	1.120470e-02	3.785020e-04	1	true
0.952365      	DICPCG	9.809860e-03	2.799210e-04	1	true
0.956029      	DICPCG	9.137330e-03	2.714140e-04	1	true
0.959693      	DICPCG	9.067150e-03	2.408610e-04	1	true
0.963052      	DICPCG	8.300300e-03	2.404680e-04	1	true
0.966131      	DICPCG	7.636020e-03	2.286250e-04	1	true
0.96921       	DICPCG	7.779260e-03	2.406670e-04	1	true
0.972289      	DICPCG	7.903030e-03	2.741790e-04	1	true
0.975368      	DICPCG	7.883860e-03	2.741970e-04	1	true
0.978887      	DICPCG	9.020240e-03	3.095120e-04	1	true
0.982406      	DICPCG	8.812770e-03	2.843390e-04	1	true
0.985925      	DICPCG	8.549400e-03	2.602880e-04	1	true
0.989443      	DICPCG	8.637890e-03	2.774660e-04	1	true
0.992962      	DICPCG	8.558860e-03	2.546590e-04	1	true
0.996481      	DICPCG	8.565060e-03	2.522950e-04	1	true
1             	DICPCG	8.613650e-03	2.754390e-04	1	true
1.0037        	DICPCG	9.055590e-03	2.888110e-04	1	true
1.00741       	DICPCG	9.030940e-03	2.770530e-04	1	true
1.01127       	DICPCG	9.454060e-03	3.203250e-04	1	true
1.01512       	DICPCG	9.419910e-03	3.233990e-04	1	true
1.01917       	DICPCG	9.672070e-03	3.308060e-04	1	true
1.02321       	DICPCG	9.424290e-03	3.162480e-04	1	true
1.02725       	DICPCG	9.193360e-03	3.277590e-04	1	true
1.03153       	DICPCG	9.240440e-03	3.262610e-04	1	true
1.03556       	DICPCG	8.441790e-03	3.181610e-04	1	true
1.03958       	DICPCG	7.470350e-03	2.229180e-04	1	true
1.04361       	DICPCG	7.616590e-03	1.814060e-04	1	true
1.04764       	DICPCG	7.688920e-03	1.851080e-04	1	true
1.05167       	DICPCG	7.627220e-03	1.793220e-04	1	true
1.05569       	DICPCG	7.641800e-03	1.817480e-04	1	true
1.05972       	DICPCG	7.638690e-03	1.734570e-04	1	true
1.06375       	DICPCG	7.755580e-03	1.877810e-04	1	true
1.06778       	DICPCG	7.804050e-03	1.929990e-04	1	true
1.07181       	DICPCG	8.017270e-03	2.242250e-04	1	true
1.07583       	DICPCG	8.051620e-03	2.207830e-04	1	true
1.07986       	DICPCG	8.027230e-03	2.158340e-04	1	true
1.08389       	DICPCG	7.990140e-03	2.103470e-04	1	true
1.08792       	DICPCG	7.868590e-03	2.112880e-04	1	true
1.09194       	DICPCG	7.664160e-03	1.866210e-04	1	true
1.09597       	DICPCG	7.633620e-03	1.831160e-04	1	true
1.1           	DICPCG	7.631180e-03	1.802390e-04	1	true
1.10417       	DICPCG	8.035140e-03	2.076630e-04	1	true
1.10833       	DICPCG	8.088180e-03	2.090430e-04	1	true
1.1125        	DICPCG	8.264720e-03	2.120120e-04	1	true
1.11667       	DICPCG	8.348530e-03	2.170500e-04	1	true
1.12083       	DICPCG	8.419740e-03	2.188640e-04	1	true
1.125         	DICPCG	8.478000e-03	2.298000e-04	1	true
1.12941       	DICPCG	8.961620e-03	2.501060e-04	1	true
1.13382       	DICPCG	8.733240e-03	2.407430e-04	1	true
1.13824       	DICPCG	8.733890e-03	2.353330e-04	1	true
1.14265       	DICPCG	8.695820e-03	2.460850e-04	1	true
1.14706       	DICPCG	8.721190e-03	2.591410e-04	1	true
1.15147       	DICPCG	8.768230e-03	2.634120e-04	1	true
1.15588       	DICPCG	8.707110e-03	2.501430e-04	1	true
1.16029       	DICPCG	8.773620e-03	2.520490e-04	1	true
1.16426       	DICPCG	8.163870e-03	2.592590e-04	1	true
1.16873       	DICPCG	9.427720e-03	2.978010e-04	1	true
1.1732        	DICPCG	9.661590e-03	2.984600e-04	1	true
1.17767       	DICPCG	9.876720e-03	3.139430e-04	1	true
1.18213       	DICPCG	1.010530e-02	3.272660e-04	1	true
1.1866        	DICPCG	1.002480e-02	3.153700e-04	1	true
1.19107       	DICPCG	1.012820e-02	3.175580e-04	1	true
1.19553       	DICPCG	1.024250e-02	3.219100e-04	1	true
1.2           	DICPCG	1.007630e-02	3.018150e-04	1	true
1.205         	DICPCG	1.120650e-02	3.523930e-04	1	true
1.21028       	DICPCG	1.173460e-02	4.007670e-04	1	true
1.21526       	DICPCG	1.072140e-02	3.500600e-04	1	true
1.22025       	DICPCG	1.045400e-02	3.426950e-04	1	true
1.22494       	DICPCG	9.755120e-03	3.258850e-04	1	true
1.22963       	DICPCG	9.856600e-03	3.769760e-04	1	true
1.23432       	DICPCG	9.676550e-03	3.723050e-04	1	true
1.23901       	DICPCG	9.091690e-03	3.556260e-04	1	true
1.2437        	DICPCG	8.370700e-03	3.116880e-04	1	true
1.2484        	DICPCG	8.346310e-03	2.557760e-04	1	true
1.25309       	DICPCG	8.391830e-03	2.436130e-04	1	true
1.25778       	DICPCG	8.409370e-03	2.351610e-04	1	true
1.26247       	DICPCG	8.420520e-03	2.230560e-04	1	true
1.26664       	DICPCG	7.719050e-03	2.294350e-04	1	true
1.27141       	DICPCG	8.828930e-03	2.624190e-04	1	true
1.27617       	DICPCG	8.774010e-03	2.288730e-04	1	true
1.28094       	DICPCG	8.678840e-03	2.154820e-04	1	true
1.2857        	DICPCG	8.722250e-03	2.286280e-04	1	true
1.29047       	DICPCG	9.023280e-03	2.406420e-04	1	true
1.29523       	DICPCG	9.339030e-03	2.614390e-04	1	true
1.3           	DICPCG	9.598180e-03	2.768430e-04	1	true
1.305         	DICPCG	9.652440e-03	2.279980e-04	1	true
1.30975       	DICPCG	8.799820e-03	1.926230e-04	1	true
1.31476       	DICPCG	9.448910e-03	2.325610e-04	1	true
1.31978       	DICPCG	9.713380e-03	2.724030e-04	1	true
1.32423       	DICPCG	8.657170e-03	2.313200e-04	1	true
1.32869       	DICPCG	8.507790e-03	2.098800e-04	1	true
1.33289       	DICPCG	7.861510e-03	1.826090e-04	1	true
1.33708       	DICPCG	8.101750e-03	2.150440e-04	1	true
1.34157       	DICPCG	9.059910e-03	3.193920e-04	1	true
1.34607       	DICPCG	8.897140e-03	2.577610e-04	1	true
1.35097       	DICPCG	9.429070e-03	2.545650e-04	1	true
1.35642       	DICPCG	1.055280e-02	3.367580e-04	1	true
1.36187       	DICPCG	1.056770e-02	3.344760e-04	1	true
1.36731       	DICPCG	1.057140e-02	2.982000e-04	1	true
1.37276       	DICPCG	1.022260e-02	2.670330e-04	1	true
1.37821       	DICPCG	1.006100e-02	2.569930e-04	1	true
1.38257       	DICPCG	8.239500e-03	1.981740e-04	1	true
1.38693       	DICPCG	8.193410e-03	1.795080e-04	1	true
1.39128       	DICPCG	8.157220e-03	1.675410e-04	1	true
1.39564       	DICPCG	8.136990e-03	1.787520e-04	1	true
1.4           	DICPCG	8.287950e-03	1.716330e-04	1	true
1.405         	DICPCG	9.507560e-03	1.881320e-04	1	true
1.41059       	DICPCG	1.066220e-02	1.964180e-04	1	true
1.41618       	DICPCG	1.046800e-02	2.281780e-04	1	true
1.42216       	DICPCG	1.099370e-02	2.391570e-04	1	true
1.42815       	DICPCG	1.116470e-02	2.338760e-04	1	true
1.43414       	DICPCG	1.150030e-02	2.629640e-04	1	true
1.44013       	DICPCG	1.114500e-02	2.740310e-04	1	true
1.44557       	DICPCG	1.050300e-02	2.821560e-04	1	true
1.45052       	DICPCG	9.583280e-03	2.527630e-04	1	true
1.45464       	DICPCG	8.428390e-03	2.314380e-04	1	true
1.45918       	DICPCG	9.241420e-03	2.049020e-04	1	true
1.46371       	DICPCG	8.681860e-03	2.131420e-04	1	true
1.46825       	DICPCG	8.580540e-03	2.086790e-04	1	true
1.47354       	DICPCG	1.000540e-02	2.323080e-04	1	true
1.48016       	DICPCG	1.262940e-02	2.883560e-04	1	true
1.48677       	DICPCG	1.264320e-02	2.619250e-04	1	true
1.49339       	DICPCG	1.186350e-02	2.558590e-04	1	true
1.5           	DICPCG	1.198850e-02	2.869680e-04	1	true
1.50588       	DICPCG	1.104090e-02	2.487560e-04	1	true
1.51176       	DICPCG	1.099950e-02	2.549460e-04	1	true
1.51765       	DICPCG	1.080830e-02	2.529820e-04	1	true
1.52353       	DICPCG	1.051570e-02	2.861960e-04	1	true
1.52941       	DICPCG	1.052930e-02	2.608920e-04	1	true
1.53529       	DICPCG	9.873670e-03	2.464800e-04	1	true
1.54118       	DICPCG	9.898120e-03	2.540090e-04	1	true
1.54706       	DICPCG	9.490440e-03	2.574920e-04	1	true
1.55294       	DICPCG	8.207560e-03	2.261920e-04	1	true
1.55882       	DICPCG	8.060530e-03	1.450560e-04	1	true
1.56471       	DICPCG	8.017200e-03	1.566540e-04	1	true
1.57059       	DICPCG	7.842040e-03	1.186850e-04	1	true
1.57647       	DICPCG	7.916900e-03	1.376590e-04	1	true
1.58235       	DICPCG	8.119270e-03	1.666010e-04	1	true
1.58824       	DICPCG	7.967020e-03	1.933530e-04	1	true
1.59412       	DICPCG	7.931620e-03	1.602170e-04	1	true
1.6           	DICPCG	7.701200e-03	1.520890e-04	1	true
1.60588       	DICPCG	7.891800e-03	1.573370e-04	1	true
1.61176       	DICPCG	7.826050e-03	1.776620e-04	1	true
1.61765       	DICPCG	7.998750e-03	1.875500e-04	1	true
1.62353       	DICPCG	8.116980e-03	1.812400e-04	1	true
1.62941       	DICPCG	8.051800e-03	1.852180e-04	1	true
1.63529       	DICPCG	7.527620e-03	1.562750e-04	1	true
1.64118       	DICPCG	7.709760e-03	1.557920e-04	1	true
1.64706       	DICPCG	8.068280e-03	1.663500e-04	1	true
1.65294       	DICPCG	7.855120e-03	1.619250e-04	1	true
1.65882       	DICPCG	7.616930e-03	1.507170e-04	1	true
1.66471       	DICPCG	7.790460e-03	1.562100e-04	1	true
1.67059       	DICPCG	7.788090e-03	1.572520e-04	1	true
1.67647       	DICPCG	7.539260e-03	1.628220e-04	1	true
1.68235       	DICPCG	7.473840e-03	1.618330e-04	1	true
1.68824       	DICPCG	7.453080e-03	1.495770e-04	1	true
1.69412       	DICPCG	7.437090e-03	1.487370e-04	1	true
1.7           	DICPCG	7.567810e-03	1.378350e-04	1	true
1.70556       	DICPCG	7.393480e-03	1.412990e-04	1	true
1.7108        	DICPCG	7.162870e-03	1.241210e-04	1	true
1.71605       	DICPCG	7.264090e-03	1.432000e-04	1	true
1.72205       	DICPCG	8.076420e-03	1.523050e-04	1	true
1.72724       	DICPCG	6.995610e-03	1.355870e-04	1	true
1.73209       	DICPCG	6.492020e-03	1.289210e-04	1	true
1.73694       	DICPCG	6.311160e-03	1.414660e-04	1	true
1.7422        	DICPCG	6.645040e-03	1.406450e-04	1	true
1.74798       	DICPCG	7.423970e-03	1.545920e-04	1	true
1.75376       	DICPCG	7.727860e-03	1.548630e-04	1	true
1.75954       	DICPCG	8.037020e-03	1.502700e-04	1	true
1.7646        	DICPCG	7.366930e-03	1.382520e-04	1	true
1.76965       	DICPCG	7.421840e-03	1.407730e-04	1	true
1.77471       	DICPCG	7.532660e-03	1.373800e-04	1	true
1.77977       	DICPCG	7.529320e-03	1.460530e-04	1	true
1.78483       	DICPCG	7.679650e-03	1.493840e-04	1	true
1.78988       	DICPCG	7.605880e-03	1.512280e-04	1	true
1.79494       	DICPCG	7.593400e-03	1.500010e-04	1	true
1.8           	DICPCG	7.534100e-03	1.567470e-04	1	true
1.805         	DICPCG	7.585800e-03	1.751590e-04	1	true
1.81028       	DICPCG	8.313770e-03	1.864280e-04	1	true
1.81526       	DICPCG	8.028450e-03	1.720350e-04	1	true
1.82091       	DICPCG	8.972150e-03	1.920550e-04	1	true
1.82618       	DICPCG	8.485250e-03	1.772120e-04	1	true
1.83186       	DICPCG	8.974790e-03	1.975440e-04	1	true
1.8371        	DICPCG	8.477810e-03	1.775180e-04	1	true
1.84282       	DICPCG	9.117560e-03	1.864050e-04	1	true
1.84802       	DICPCG	8.523830e-03	1.711250e-04	1	true
1.85275       	DICPCG	7.878140e-03	1.822980e-04	1	true
1.858         	DICPCG	8.799080e-03	1.835980e-04	1	true
1.864         	DICPCG	1.014170e-02	2.229110e-04	1	true
1.87          	DICPCG	1.054500e-02	2.114920e-04	1	true
1.875         	DICPCG	9.394510e-03	2.091680e-04	1	true
1.88          	DICPCG	9.156270e-03	2.161970e-04	1	true
1.885         	DICPCG	9.420170e-03	2.018600e-04	1	true
1.89          	DICPCG	9.485210e-03	1.984120e-04	1	true
1.895         	DICPCG	9.460190e-03	2.031650e-04	1	true
1.9           	DICPCG	9.395080e-03	1.933210e-04	1	true
1.90526       	DICPCG	9.769670e-03	2.034590e-04	1	true
1.91025       	DICPCG	9.331660e-03	2.207090e-04	1	true
1.91497       	DICPCG	8.720680e-03	2.260340e-04	1	true
1.92029       	DICPCG	1.000070e-02	2.330590e-04	1	true
1.9256        	DICPCG	1.016910e-02	2.163840e-04	1	true
1.93132       	DICPCG	1.122570e-02	2.283920e-04	1	true
1.93705       	DICPCG	1.161900e-02	2.493900e-04	1	true
1.94229       	DICPCG	1.053210e-02	2.322600e-04	1	true
1.94754       	DICPCG	1.032400e-02	2.116740e-04	1	true
1.95279       	DICPCG	1.050000e-02	2.151620e-04	1	true
1.95803       	DICPCG	1.029510e-02	2.126280e-04	1	true
1.96328       	DICPCG	1.020180e-02	2.158780e-04	1	true
1.96787       	DICPCG	9.149050e-03	1.902700e-04	1	true
1.97322       	DICPCG	1.063620e-02	1.894660e-04	1	true
1.97858       	DICPCG	1.075290e-02	2.077550e-04	1	true
1.98393       	DICPCG	1.084960e-02	1.953690e-04	1	true
1.98929       	DICPCG	1.112330e-02	1.905130e-04	1	true
1.99464       	DICPCG	1.109000e-02	1.898290e-04	1	true
2             	DICPCG	1.140840e-02	2.144350e-04	1	true
2.00526       	DICPCG	1.108480e-02	2.618030e-04	1	true
2.01053       	DICPCG	1.102580e-02	2.512190e-04	1	true
2.01612       	DICPCG	1.161480e-02	2.303430e-04	1	true
2.02136       	DICPCG	1.111370e-02	2.212450e-04	1	true
2.02741       	DICPCG	1.284460e-02	2.590660e-04	1	true
2.03225       	DICPCG	1.057390e-02	2.337990e-04	1	true
2.03709       	DICPCG	1.051490e-02	2.292010e-04	1	true
2.04233       	DICPCG	1.125420e-02	2.463420e-04	1	true
2.04757       	DICPCG	1.143020e-02	2.987640e-04	1	true
2.0534        	DICPCG	1.257670e-02	3.316570e-04	1	true
2.05858       	DICPCG	1.123120e-02	2.760910e-04	1	true
2.06318       	DICPCG	1.013480e-02	2.295690e-04	1	true
2.06727       	DICPCG	8.913060e-03	2.884460e-04	1	true
2.07136       	DICPCG	8.447270e-03	2.749230e-04	1	true
2.07613       	DICPCG	1.000900e-02	2.861720e-04	1	true
2.0821        	DICPCG	1.228600e-02	4.039220e-04	1	true
2.08658       	DICPCG	9.037330e-03	3.028460e-04	1	true
2.09105       	DICPCG	8.836810e-03	3.004480e-04	1	true
2.09553       	DICPCG	9.184090e-03	3.143790e-04	1	true
2.1           	DICPCG	9.017800e-03	2.412700e-04	1	true
2.105         	DICPCG	9.734140e-03	2.112820e-04	1	true
2.11          	DICPCG	9.814080e-03	2.097270e-04	1	true
2.1145        	DICPCG	9.092810e-03	2.102020e-04	1	true
2.11877       	DICPCG	8.839790e-03	3.063860e-04	1	true
2.12305       	DICPCG	8.581940e-03	3.145460e-04	1	true
2.12732       	DICPCG	8.025380e-03	3.576800e-04	1	true
2.13217       	DICPCG	7.999780e-03	3.231720e-04	1	true
2.13782       	DICPCG	8.231380e-03	2.312740e-04	1	true
2.143         	DICPCG	7.365900e-03	1.417520e-04	1	true
2.14739       	DICPCG	6.316230e-03	1.012470e-04	1	true
2.15144       	DICPCG	5.931880e-03	1.218750e-04	1	true
2.15629       	DICPCG	7.055020e-03	1.153190e-04	1	true
2.16115       	DICPCG	7.247830e-03	1.420190e-04	1	true
2.16547       	DICPCG	6.546060e-03	1.622180e-04	1	true
2.16978       	DICPCG	6.578370e-03	1.785910e-04	1	true
2.1741        	DICPCG	6.633700e-03	2.190720e-04	1	true
2.17928       	DICPCG	7.408520e-03	1.805910e-04	1	true
2.18446       	DICPCG	7.605890e-03	1.618070e-04	1	true
2.18964       	DICPCG	7.679090e-03	1.383130e-04	1	true
2.19482       	DICPCG	8.218830e-03	1.895570e-04	1	true
2.2           	DICPCG	7.808190e-03	1.882730e-04	1	true
2.20455       	DICPCG	7.255410e-03	2.003330e-04	1	true
2.20909       	DICPCG	6.975730e-03	1.642100e-04	1	true
2.21388       	DICPCG	7.172960e-03	1.998080e-04	1	true
2.21894       	DICPCG	7.426330e-03	2.285110e-04	1	true
2.22473       	DICPCG	8.434480e-03	2.103430e-04	1	true
2.231         	DICPCG	9.376040e-03	1.947570e-04	1	true
2.23631       	DICPCG	7.692990e-03	1.254520e-04	1	true
2.24121       	DICPCG	7.167420e-03	1.526380e-04	1	true
2.24541       	DICPCG	5.950760e-03	1.101880e-04	1	true
2.25037       	DICPCG	7.003050e-03	1.421040e-04	1	true
2.25589       	DICPCG	8.277090e-03	1.524710e-04	1	true
2.2614        	DICPCG	8.329990e-03	1.230150e-04	1	true
2.26691       	DICPCG	8.146420e-03	1.597100e-04	1	true
2.27164       	DICPCG	6.971250e-03	1.051170e-04	1	true
2.27637       	DICPCG	7.095440e-03	1.041220e-04	1	true
2.28031       	DICPCG	6.026870e-03	1.081070e-04	1	true
2.28425       	DICPCG	5.624150e-03	1.744510e-04	1	true
2.28818       	DICPCG	5.861060e-03	1.331600e-04	1	true
2.29212       	DICPCG	6.179010e-03	1.194910e-04	1	true
2.29606       	DICPCG	6.281800e-03	1.216310e-04	1	true
2.3           	DICPCG	6.140700e-03	1.075170e-04	1	true
2.30455       	DICPCG	7.015000e-03	1.284890e-04	1	true
2.30957       	DICPCG	7.571730e-03	1.515630e-04	1	true
2.31409       	DICPCG	6.448390e-03	1.570190e-04	1	true
2.31839       	DICPCG	5.993750e-03	1.097400e-04	1	true
2.32247       	DICPCG	6.176760e-03	9.995700e-05	1	true
2.32634       	DICPCG	6.166490e-03	1.421680e-04	1	true
2.33003       	DICPCG	5.626050e-03	1.070330e-04	1	true
2.33414       	DICPCG	6.223400e-03	1.142090e-04	1	true
2.33885       	DICPCG	7.122400e-03	1.238980e-04	1	true
2.34355       	DICPCG	6.924040e-03	1.461130e-04	1	true
2.34825       	DICPCG	6.875320e-03	1.178960e-04	1	true
2.35224       	DICPCG	6.045000e-03	1.779500e-04	1	true
2.35622       	DICPCG	5.988580e-03	1.424930e-04	1	true
2.36059       	DICPCG	6.460460e-03	1.289280e-04	1	true
2.36497       	DICPCG	6.683060e-03	1.164630e-04	1	true
2.36886       	DICPCG	5.808270e-03	1.068660e-04	1	true
2.37276       	DICPCG	5.881150e-03	1.514270e-04	1	true
2.3773        	DICPCG	6.601580e-03	1.607070e-04	1	true
2.38184       	DICPCG	6.371120e-03	1.419610e-04	1	true
2.38638       	DICPCG	6.359340e-03	1.186330e-04	1	true
2.39092       	DICPCG	6.361580e-03	1.185540e-04	1	true
2.39546       	DICPCG	6.354710e-03	1.299210e-04	1	true
2.4           	DICPCG	6.118330e-03	1.073600e-04	1	true
2.405         	DICPCG	6.828570e-03	9.723130e-05	1	true
2.40975       	DICPCG	6.432160e-03	9.293560e-05	1	true
2.41405       	DICPCG	5.863880e-03	1.010020e-04	1	true
2.41814       	DICPCG	5.498370e-03	9.713630e-05	1	true
2.42223       	DICPCG	5.509570e-03	1.102870e-04	1	true
2.42655       	DICPCG	5.807200e-03	9.926320e-05	1	true
2.43087       	DICPCG	5.913560e-03	1.021850e-04	1	true
2.43494       	DICPCG	5.622550e-03	9.317480e-05	1	true
2.43901       	DICPCG	5.659010e-03	9.759420e-05	1	true
2.4437        	DICPCG	6.537750e-03	1.105410e-04	1	true
2.44882       	DICPCG	7.171950e-03	1.082000e-04	1	true
2.4545        	DICPCG	7.784370e-03	1.215340e-04	1	true
2.45956       	DICPCG	6.915260e-03	1.160810e-04	1	true
2.46405       	DICPCG	6.318610e-03	9.905550e-05	1	true
2.46855       	DICPCG	6.464390e-03	1.087250e-04	1	true
2.47304       	DICPCG	6.463690e-03	1.000300e-04	1	true
2.47753       	DICPCG	6.464720e-03	1.073220e-04	1	true
2.48203       	DICPCG	6.513740e-03	1.150820e-04	1	true
2.48652       	DICPCG	6.571520e-03	1.087190e-04	1	true
2.49101       	DICPCG	6.669770e-03	1.040300e-04	1	true
2.49551       	DICPCG	6.662650e-03	1.137350e-04	1	true
2.5           	DICPCG	6.510370e-03	1.154540e-04	1	true
2.505         	DICPCG	7.239450e-03	1.261260e-04	1	true
2.51028       	DICPCG	7.758270e-03	1.471740e-04	1	true
2.51526       	DICPCG	7.536460e-03	1.497660e-04	1	true
2.52091       	DICPCG	8.482820e-03	1.799010e-04	1	true
2.527         	DICPCG	9.066500e-03	2.033090e-04	1	true
2.53308       	DICPCG	8.794620e-03	2.090600e-04	1	true
2.53866       	DICPCG	7.724060e-03	1.887880e-04	1	true
2.54423       	DICPCG	7.530110e-03	1.815440e-04	1	true
2.55043       	DICPCG	8.246830e-03	1.770310e-04	1	true
2.55751       	DICPCG	9.333570e-03	1.838720e-04	1	true
2.56459       	DICPCG	9.588880e-03	1.869570e-04	1	true
2.57049       	DICPCG	7.839950e-03	1.577210e-04	1	true
2.57639       	DICPCG	7.434690e-03	1.726790e-04	1	true
2.5823        	DICPCG	7.376260e-03	1.473840e-04	1	true
2.5882        	DICPCG	7.692360e-03	1.487080e-04	1	true