-5 	348.432 	100000 	0.999645 	-1.06707e-13 	0 	0
-4.98999 	348.432 	100000 	0.999645 	-1.06707e-13 	0 	0
-4.97998 	348.432 	100000 	0.999645 	-1.06707e-13 	0 	0
-4.96997 	348.432 	100000 	0.999645 	-1.06707e-13 	0 	0
-4.95996 	348.432 	100000 	0.999645 	-1.06707e-13 	0 	0
-4.94995 	348.432 	100000 	0.999645 	-1.06707e-13 	0 	0
-4.93994 	348.432 	100000 	0.999645 	-1.06628e-13 	0 	0
-4.92993 	348.432 	100000 	0.999645 	-1.0655e-13 	0 	0
-4.91992 	348.432 	100000 	0.999645 	-1.06472e-13 	0 	0
-4.90991 	348.432 	100000 	0.999645 	-1.06393e-13 	0 	0
-4.8999 	348.432 	100000 	0.999645 	-1.06315e-13 	0 	0
-4.88989 	348.432 	100000 	0.999645 	-1.06237e-13 	0 	0
-4.87988 	348.432 	100000 	0.999645 	-1.06159e-13 	0 	0
-4.86987 	348.432 	100000 	0.999645 	-1.0608e-13 	0 	0
-4.85986 	348.432 	100000 	0.999645 	-1.06002e-13 	0 	0
-4.84985 	348.432 	100000 	0.999645 	-1.05733e-13 	0 	0
-4.83984 	348.432 	100000 	0.999645 	-9.29274e-14 	0 	0
-4.82983 	348.432 	100000 	0.999645 	-8.01219e-14 	0 	0
-4.81982 	348.432 	100000 	0.999645 	-6.73164e-14 	0 	0
-4.80981 	348.432 	100000 	0.999645 	-5.45109e-14 	0 	0
-4.7998 	348.432 	100000 	0.999645 	-4.17054e-14 	0 	0
-4.78979 	348.432 	100000 	0.999645 	-2.88999e-14 	0 	0
-4.77978 	348.432 	100000 	0.999645 	-1.60944e-14 	0 	0
-4.76977 	348.432 	100000 	0.999645 	-3.28887e-15 	0 	0
-4.75976 	348.432 	100000 	0.999645 	9.51663e-15 	0 	0
-4.74975 	348.432 	100000 	0.999645 	2.22318e-14 	0 	0
-4.73974 	348.432 	100000 	0.999645 	3.14234e-14 	0 	0
-4.72973 	348.432 	100000 	0.999645 	4.0615e-14 	0 	0
-4.71972 	348.432 	100000 	0.999645 	4.98066e-14 	0 	0
-4.70971 	348.432 	100000 	0.999645 	5.89982e-14 	0 	0
-4.6997 	348.432 	100000 	0.999645 	6.81897e-14 	0 	0
-4.68969 	348.432 	100000 	0.999645 	7.73813e-14 	0 	0
-4.67968 	348.432 	100000 	0.999645 	8.65729e-14 	0 	0
-4.66967 	348.432 	100000 	0.999645 	9.57645e-14 	0 	0
-4.65966 	348.432 	100000 	0.999645 	1.04956e-13 	0 	0
-4.64965 	348.432 	100000 	0.999645 	1.13547e-13 	0 	0
-4.63964 	348.432 	100000 	0.999645 	1.05571e-13 	0 	0
-4.62963 	348.432 	100000 	0.999645 	9.75949e-14 	0 	0
-4.61962 	348.432 	100000 	0.999645 	8.96189e-14 	0 	0
-4.60961 	348.432 	100000 	0.999645 	8.16429e-14 	0 	0
-4.5996 	348.432 	100000 	0.999645 	7.3667e-14 	0 	0
-4.58959 	348.432 	100000 	0.999645 	6.5691e-14 	0 	0
-4.57958 	348.432 	100000 	0.999645 	5.7715e-14 	0 	0
-4.56957 	348.432 	100000 	0.999645 	4.9739e-14 	0 	0
-4.55956 	348.432 	100000 	0.999645 	4.17631e-14 	0 	0
-4.54955 	348.432 	100000 	0.999645 	3.37932e-14 	0 	0
-4.53954 	348.432 	100000 	0.999645 	2.59542e-14 	0 	0
-4.52953 	348.432 	100000 	0.999645 	1.81151e-14 	0 	0
-4.51952 	348.432 	100000 	0.999645 	1.0276e-14 	0 	0
-4.50951 	348.432 	100000 	0.999645 	2.43688e-15 	0 	0
-4.4995 	348.432 	100000 	0.999645 	-5.4022e-15 	0 	0
-4.48949 	348.432 	100000 	0.999645 	-1.32413e-14 	0 	0
-4.47948 	348.432 	100000 	0.999645 	-2.10804e-14 	0 	0
-4.46947 	348.432 	100000 	0.999645 	-2.89195e-14 	0 	0
-4.45946 	348.432 	100000 	0.999645 	-3.67586e-14 	0 	0
-4.44945 	348.432 	100000 	0.999645 	-4.43911e-14 	0 	0
-4.43944 	348.432 	100000 	0.999645 	-4.84743e-14 	0 	0
-4.42943 	348.432 	100000 	0.999645 	-5.25575e-14 	0 	0
-4.41942 	348.432 	100000 	0.999645 	-5.66407e-14 	0 	0
-4.40941 	348.432 	100000 	0.999645 	-6.0724e-14 	0 	0
-4.3994 	348.432 	100000 	0.999645 	-6.48072e-14 	0 	0
-4.38939 	348.432 	100000 	0.999645 	-6.88904e-14 	0 	0
-4.37938 	348.432 	100000 	0.999645 	-7.29736e-14 	0 	0
-4.36937 	348.432 	100000 	0.999645 	-7.70569e-14 	0 	0
-4.35936 	348.432 	100000 	0.999645 	-8.11401e-14 	0 	0
-4.34935 	348.432 	100000 	0.999645 	-8.42094e-14 	0 	0
-4.33934 	348.432 	100000 	0.999645 	-7.26948e-14 	0 	0
-4.32933 	348.432 	100000 	0.999645 	-6.11802e-14 	0 	0
-4.31932 	348.432 	100000 	0.999645 	-4.96655e-14 	0 	0
-4.30931 	348.432 	100000 	0.999645 	-3.81509e-14 	0 	0
-4.2993 	348.432 	100000 	0.999645 	-2.66362e-14 	0 	0
-4.28929 	348.432 	100000 	0.999645 	-1.51216e-14 	0 	0
-4.27928 	348.432 	100000 	0.999645 	-3.60694e-15 	0 	0
-4.26927 	348.432 	100000 	0.999645 	7.90771e-15 	0 	0
-4.25926 	348.432 	100000 	0.999645 	1.94224e-14 	0 	0
-4.24925 	348.432 	100000 	0.999645 	2.9709e-14 	0 	0
-4.23924 	348.432 	100000 	0.999645 	2.48505e-14 	0 	0
-4.22923 	348.432 	100000 	0.999645 	1.99921e-14 	0 	0
-4.21922 	348.432 	100000 	0.999645 	1.51336e-14 	0 	0
-4.20921 	348.432 	100000 	0.999645 	1.02751e-14 	0 	0
-4.1992 	348.432 	100000 	0.999645 	5.41662e-15 	0 	0
-4.18919 	348.432 	100000 	0.999645 	5.58143e-16 	0 	0
-4.17918 	348.432 	100000 	0.999645 	-4.30034e-15 	0 	0
-4.16917 	348.432 	100000 	0.999645 	-9.15881e-15 	0 	0
-4.15916 	348.432 	100000 	0.999645 	-1.40173e-14 	0 	0
-4.14915 	348.432 	100000 	0.999645 	-2.09564e-14 	0 	0
-4.13914 	348.432 	100000 	0.999645 	-5.02923e-14 	0 	0
-4.12913 	348.432 	100000 	0.999645 	-7.96283e-14 	0 	0
-4.11912 	348.432 	100000 	0.999645 	-1.08964e-13 	0 	0
-4.10911 	348.432 	100000 	0.999645 	-1.383e-13 	0 	0
-4.0991 	348.432 	100000 	0.999645 	-1.67636e-13 	0 	0
-4.08909 	348.432 	100000 	0.999645 	-1.96972e-13 	0 	0
-4.07908 	348.432 	100000 	0.999645 	-2.26308e-13 	0 	0
-4.06907 	348.432 	100000 	0.999645 	-2.55644e-13 	0 	0
-4.05906 	348.432 	100000 	0.999645 	-2.8498e-13 	0 	0
-4.04905 	348.432 	100000 	0.999645 	-3.14006e-13 	0 	0
-4.03904 	348.432 	100000 	0.999645 	-3.40083e-13 	0 	0
-4.02903 	348.432 	100000 	0.999645 	-3.66159e-13 	0 	0
-4.01902 	348.432 	100000 	0.999645 	-3.92235e-13 	0 	0
-4.00901 	348.432 	100000 	0.999645 	-4.18312e-13 	0 	0
-3.999 	348.432 	100000 	0.999645 	-4.44388e-13 	0 	0
-3.98899 	348.432 	100000 	0.999645 	-4.70465e-13 	0 	0
-3.97898 	348.432 	100000 	0.999645 	-4.96541e-13 	0 	0
-3.96897 	348.432 	100000 	0.999645 	-5.22617e-13 	0 	0
-3.95896 	348.432 	100000 	0.999645 	-5.48694e-13 	0 	0
-3.94895 	348.432 	100000 	0.999645 	-5.71051e-13 	0 	0
-3.93894 	348.432 	100000 	0.999645 	-5.61711e-13 	0 	0
-3.92893 	348.432 	100000 	0.999645 	-5.52371e-13 	0 	0
-3.91892 	348.432 	100000 	0.999645 	-5.43031e-13 	0 	0
-3.90891 	348.432 	100000 	0.999645 	-5.33691e-13 	0 	0
-3.8989 	348.432 	100000 	0.999645 	-5.24351e-13 	0 	0
-3.88889 	348.432 	100000 	0.999645 	-5.15011e-13 	0 	0
-3.87888 	348.432 	100000 	0.999645 	-5.05671e-13 	0 	0
-3.86887 	348.432 	100000 	0.999645 	-4.96331e-13 	0 	0
-3.85886 	348.432 	100000 	0.999645 	-4.86991e-13 	0 	0
-3.84885 	348.432 	100000 	0.999645 	-4.75263e-13 	0 	0
-3.83884 	348.432 	100000 	0.999645 	-4.45156e-13 	0 	0
-3.82883 	348.432 	100000 	0.999645 	-4.15049e-13 	0 	0
-3.81882 	348.432 	100000 	0.999645 	-3.84943e-13 	0 	0
-3.80881 	348.432 	100000 	0.999645 	-3.54836e-13 	0 	0
-3.7988 	348.432 	100000 	0.999645 	-3.24729e-13 	0 	0
-3.78879 	348.432 	100000 	0.999645 	-2.94622e-13 	0 	0
-3.77878 	348.432 	100000 	0.999645 	-2.64516e-13 	0 	0
-3.76877 	348.432 	100000 	0.999645 	-2.34409e-13 	0 	0
-3.75876 	348.432 	100000 	0.999645 	-2.04302e-13 	0 	0
-3.74875 	348.432 	100000 	0.999645 	-1.75577e-13 	0 	0
-3.73874 	348.432 	100000 	0.999645 	-1.56522e-13 	0 	0
-3.72873 	348.432 	100000 	0.999645 	-1.37467e-13 	0 	0
-3.71872 	348.432 	100000 	0.999645 	-1.18411e-13 	0 	0
-3.70871 	348.432 	100000 	0.999645 	-9.93562e-14 	0 	0
-3.6987 	348.432 	100000 	0.999645 	-8.0301e-14 	0 	0
-3.68869 	348.432 	100000 	0.999645 	-6.12458e-14 	0 	0
-3.67868 	348.432 	100000 	0.999645 	-4.21906e-14 	0 	0
-3.66867 	348.432 	100000 	0.999645 	-2.31354e-14 	0 	0
-3.65866 	348.432 	100000 	0.999645 	-4.08016e-15 	0 	0
-3.64865 	348.432 	100000 	0.999645 	1.37392e-14 	0 	0
-3.63864 	348.432 	100000 	0.999645 	2.36398e-14 	0 	0
-3.62863 	348.432 	100000 	0.999645 	3.35405e-14 	0 	0
-3.61862 	348.432 	100000 	0.999645 	4.34411e-14 	0 	0
-3.60861 	348.432 	100000 	0.999645 	5.33417e-14 	0 	0
-3.5986 	348.432 	100000 	0.999645 	6.32424e-14 	0 	0
-3.58859 	348.432 	100000 	0.999645 	7.3143e-14 	0 	0
-3.57858 	348.432 	100000 	0.999645 	8.30437e-14 	0 	0
-3.56857 	348.432 	100000 	0.999645 	9.29443e-14 	0 	0
-3.55856 	348.432 	100000 	0.999645 	1.02845e-13 	0 	0
-3.54855 	348.432 	100000 	0.999645 	1.09725e-13 	0 	0
-3.53854 	348.432 	100000 	0.999645 	9.87949e-14 	0 	0
-3.52853 	348.432 	100000 	0.999645 	8.78647e-14 	0 	0
-3.51852 	348.432 	100000 	0.999645 	7.69344e-14 	0 	0
-3.50851 	348.432 	100000 	0.999645 	6.60042e-14 	0 	0
-3.4985 	348.432 	100000 	0.999645 	5.5074e-14 	0 	0
-3.48849 	348.432 	100000 	0.999645 	4.41438e-14 	0 	0
-3.47848 	348.432 	100000 	0.999645 	3.32135e-14 	0 	0
-3.46847 	348.432 	100000 	0.999645 	2.22833e-14 	0 	0
-3.45846 	348.432 	100000 	0.999645 	1.13531e-14 	0 	0
-3.44845 	348.432 	100000 	0.999645 	-9.75636e-17 	0 	0
-3.43844 	348.432 	100000 	0.999645 	-1.43855e-14 	0 	0
-3.42843 	348.432 	100000 	0.999645 	-2.86734e-14 	0 	0
-3.41842 	348.432 	100000 	0.999645 	-4.29612e-14 	0 	0
-3.40841 	348.432 	100000 	0.999645 	-5.72491e-14 	0 	0
-3.3984 	348.432 	100000 	0.999645 	-7.1537e-14 	0 	0
-3.38839 	348.432 	100000 	0.999645 	-8.58249e-14 	0 	0
-3.37838 	348.432 	100000 	0.999645 	-1.00113e-13 	0 	0
-3.36837 	348.432 	100000 	0.999645 	-1.14401e-13 	0 	0
-3.35836 	348.432 	100000 	0.999645 	-1.28689e-13 	0 	0
-3.34835 	348.432 	100000 	0.999645 	-1.38989e-13 	0 	0
-3.33834 	348.432 	100000 	0.999645 	-1.29109e-13 	0 	0
-3.32833 	348.432 	100000 	0.999645 	-1.1923e-13 	0 	0
-3.31832 	348.432 	100000 	0.999645 	-1.09351e-13 	0 	0
-3.30831 	348.432 	100000 	0.999645 	-9.94711e-14 	0 	0
-3.2983 	348.432 	100000 	0.999645 	-8.95916e-14 	0 	0
-3.28829 	348.432 	100000 	0.999645 	-7.97121e-14 	0 	0
-3.27828 	348.432 	100000 	0.999645 	-6.98327e-14 	0 	0
-3.26827 	348.432 	100000 	0.999645 	-5.99532e-14 	0 	0
-3.25826 	348.432 	100000 	0.999645 	-5.00738e-14 	0 	0
-3.24825 	348.432 	100000 	0.999645 	-3.93986e-14 	0 	0
-3.23824 	348.432 	100000 	0.999645 	-2.49725e-14 	0 	0
-3.22823 	348.432 	100000 	0.999645 	-1.05463e-14 	0 	0
-3.21822 	348.432 	100000 	0.999645 	3.87981e-15 	0 	0
-3.20821 	348.432 	100000 	0.999645 	1.8306e-14 	0 	0
-3.1982 	348.432 	100000 	0.999645 	3.27321e-14 	0 	0
-3.18819 	348.432 	100000 	0.999645 	4.71583e-14 	0 	0
-3.17818 	348.432 	100000 	0.999645 	6.15844e-14 	0 	0
-3.16817 	348.432 	100000 	0.999645 	7.60105e-14 	0 	0
-3.15816 	348.432 	100000 	0.999645 	9.04367e-14 	0 	0
-3.14815 	348.432 	100000 	0.999645 	1.03495e-13 	0 	0
-3.13814 	348.432 	100000 	0.999645 	1.10525e-13 	0 	0
-3.12813 	348.432 	100000 	0.999645 	1.17555e-13 	0 	0
-3.11812 	348.432 	100000 	0.999645 	1.24586e-13 	0 	0
-3.10811 	348.432 	100000 	0.999645 	1.31616e-13 	0 	0
-3.0981 	348.432 	100000 	0.999645 	1.38647e-13 	0 	0
-3.08809 	348.432 	100000 	0.999645 	1.45677e-13 	0 	0
-3.07808 	348.432 	100000 	0.999645 	1.52708e-13 	0 	0
-3.06807 	348.432 	100000 	0.999645 	1.59738e-13 	0 	0
-3.05806 	348.432 	100000 	0.999645 	1.66769e-13 	0 	0
-3.04805 	348.432 	100000 	0.999645 	1.68638e-13 	0 	0
-3.03804 	348.432 	100000 	0.999645 	1.49204e-13 	0 	0
-3.02803 	348.432 	100000 	0.999645 	1.2977e-13 	0 	0
-3.01802 	348.432 	100000 	0.999645 	1.10336e-13 	0 	0
-3.00801 	348.432 	100000 	0.999645 	9.09025e-14 	0 	0
-2.998 	348.432 	100000 	0.999645 	7.14685e-14 	0 	0
-2.98799 	348.432 	100000 	0.999645 	5.20345e-14 	0 	0
-2.97798 	348.432 	100000 	0.999645 	3.26006e-14 	0 	0
-2.96797 	348.432 	100000 	0.999645 	1.31666e-14 	0 	0
-2.95796 	348.432 	100000 	0.999645 	-6.26739e-15 	0 	0
-2.94795 	348.432 	100000 	0.999645 	-2.43875e-14 	0 	0
-2.93794 	348.432 	100000 	0.999645 	-3.74125e-14 	0 	0
-2.92793 	348.432 	100000 	0.999645 	-5.04375e-14 	0 	0
-2.91792 	348.432 	100000 	0.999645 	-6.34625e-14 	0 	0
-2.90791 	348.432 	100000 	0.999645 	-7.64875e-14 	0 	0
-2.8979 	348.432 	100000 	0.999645 	-8.95124e-14 	0 	0
-2.88789 	348.432 	100000 	0.999645 	-1.02537e-13 	0 	0
-2.87788 	348.432 	100000 	0.999645 	-1.15562e-13 	0 	0
-2.86787 	348.432 	100000 	0.999645 	-1.28587e-13 	0 	0
-2.85786 	348.432 	100000 	0.999645 	-1.41612e-13 	0 	0
-2.84785 	348.432 	100000 	0.999645 	-1.49284e-13 	0 	0
-2.83784 	348.432 	100000 	0.999645 	-1.3741e-13 	0 	0
-2.82783 	348.432 	100000 	0.999645 	-1.25535e-13 	0 	0
-2.81782 	348.432 	100000 	0.999645 	-1.13661e-13 	0 	0
-2.80781 	348.432 	100000 	0.999645 	-1.01787e-13 	0 	0
-2.7978 	348.432 	100000 	0.999645 	-8.99124e-14 	0 	0
-2.78779 	348.432 	100000 	0.999645 	-7.80381e-14 	0 	0
-2.77778 	348.432 	100000 	0.999645 	-6.61638e-14 	0 	0
-2.76777 	348.432 	100000 	0.999645 	-5.42894e-14 	0 	0
-2.75776 	348.432 	100000 	0.999645 	-4.24151e-14 	0 	0
-2.74775 	348.432 	100000 	0.999645 	-2.8116e-14 	0 	0
-2.73774 	348.432 	100000 	0.999645 	-5.46502e-15 	0 	0
-2.72773 	348.432 	100000 	0.999645 	1.7186e-14 	0 	0
-2.71772 	348.432 	100000 	0.999645 	3.9837e-14 	0 	0
-2.70771 	348.432 	100000 	0.999645 	6.2488e-14 	0 	0
-2.6977 	348.432 	100000 	0.999645 	8.5139e-14 	0 	0
-2.68769 	348.432 	100000 	0.999645 	1.0779e-13 	0 	0
-2.67768 	348.432 	100000 	0.999645 	1.30441e-13 	0 	0
-2.66767 	348.432 	100000 	0.999645 	1.53092e-13 	0 	0
-2.65766 	348.432 	100000 	0.999645 	1.75743e-13 	0 	0
-2.64765 	348.432 	100000 	0.999645 	1.97706e-13 	0 	0
-2.63764 	348.432 	100000 	0.999645 	2.1743e-13 	0 	0
-2.62763 	348.432 	100000 	0.999645 	2.37153e-13 	0 	0
-2.61762 	348.432 	100000 	0.999645 	2.56877e-13 	0 	0
-2.60761 	348.432 	100000 	0.999645 	2.766e-13 	0 	0
-2.5976 	348.432 	100000 	0.999645 	2.96324e-13 	0 	0
-2.58759 	348.432 	100000 	0.999645 	3.16047e-13 	0 	0
-2.57758 	348.432 	100000 	0.999645 	3.35771e-13 	0 	0
-2.56757 	348.432 	100000 	0.999645 	3.55494e-13 	0 	0
-2.55756 	348.432 	100000 	0.999645 	3.75218e-13 	0 	0
-2.54755 	348.432 	100000 	0.999645 	3.88786e-13 	0 	0
-2.53754 	348.432 	100000 	0.999645 	3.83386e-13 	0 	0
-2.52753 	348.432 	100000 	0.999645 	3.77986e-13 	0 	0
-2.51752 	348.432 	100000 	0.999645 	3.72586e-13 	0 	0
-2.50751 	348.432 	100000 	0.999645 	3.67186e-13 	0 	0
-2.4975 	348.432 	100000 	0.999645 	3.61787e-13 	0 	0
-2.48749 	348.432 	100000 	0.999645 	3.56387e-13 	0 	0
-2.47748 	348.432 	100000 	0.999645 	3.50987e-13 	0 	0
-2.46747 	348.432 	100000 	0.999645 	3.45587e-13 	0 	0
-2.45746 	348.432 	100000 	0.999645 	3.40187e-13 	0 	0
-2.44745 	348.432 	100000 	0.999645 	3.31903e-13 	0 	0
-2.43744 	348.432 	100000 	0.999645 	3.15192e-13 	0 	0
-2.42743 	348.432 	100000 	0.999645 	2.98481e-13 	0 	0
-2.41742 	348.432 	100000 	0.999645 	2.8177e-13 	0 	0
-2.40741 	348.432 	100000 	0.999645 	2.6506e-13 	0 	0
-2.3974 	348.432 	100000 	0.999645 	2.48349e-13 	0 	0
-2.38739 	348.432 	100000 	0.999645 	2.31638e-13 	0 	0
-2.37738 	348.432 	100000 	0.999645 	2.14927e-13 	0 	0
-2.36737 	348.432 	100000 	0.999645 	1.98216e-13 	0 	0
-2.35736 	348.432 	100000 	0.999645 	1.81505e-13 	0 	0
-2.34735 	348.432 	100000 	0.999645 	1.66504e-13 	0 	0
-2.33734 	348.432 	100000 	0.999645 	1.56243e-13 	0 	0
-2.32733 	348.432 	100000 	0.999645 	1.45983e-13 	0 	0
-2.31732 	348.432 	100000 	0.999645 	1.35722e-13 	0 	0
-2.30731 	348.432 	100000 	0.999645 	1.25461e-13 	0 	0
-2.2973 	348.432 	100000 	0.999645 	1.152e-13 	0 	0
-2.28729 	348.432 	100000 	0.999645 	1.0494e-13 	0 	0
-2.27728 	348.432 	100000 	0.999645 	9.4679e-14 	0 	0
-2.26727 	348.432 	100000 	0.999645 	8.44183e-14 	0 	0
-2.25726 	348.432 	100000 	0.999645 	7.41576e-14 	0 	0
-2.24725 	348.432 	100000 	0.999645 	7.04214e-14 	0 	0
-2.23724 	348.432 	100000 	0.999645 	8.3886e-14 	0 	0
-2.22723 	348.432 	100000 	0.999645 	9.73506e-14 	0 	0
-2.21722 	348.432 	100000 	0.999645 	1.10815e-13 	0 	0
-2.20721 	348.432 	100000 	0.999645 	1.2428e-13 	0 	0
-2.1972 	348.432 	100000 	0.999645 	1.37744e-13 	0 	0
-2.18719 	348.432 	100000 	0.999645 	1.51209e-13 	0 	0
-2.17718 	348.432 	100000 	0.999645 	1.64674e-13 	0 	0
-2.16717 	348.432 	100000 	0.999645 	1.78138e-13 	0 	0
-2.15716 	348.432 	100000 	0.999645 	1.91603e-13 	0 	0
-2.14715 	348.432 	100000 	0.999645 	2.10434e-13 	0 	0
-2.13714 	348.432 	100000 	0.999645 	2.42729e-13 	0 	0
-2.12713 	348.432 	100000 	0.999645 	2.75023e-13 	0 	0
-2.11712 	348.432 	100000 	0.999645 	3.07318e-13 	0 	0
-2.10711 	348.432 	100000 	0.999645 	3.39613e-13 	0 	0
-2.0971 	348.432 	100000 	0.999645 	3.71907e-13 	0 	0
-2.08709 	348.432 	100000 	0.999645 	4.04202e-13 	0 	0
-2.07708 	348.432 	100000 	0.999645 	4.36497e-13 	0 	0
-2.06707 	348.432 	100000 	0.999645 	4.68792e-13 	0 	0
-2.05706 	348.432 	100000 	0.999645 	5.01086e-13 	0 	0
-2.04705 	348.432 	100000 	0.999645 	5.2387e-13 	0 	0
-2.03704 	348.432 	100000 	0.999645 	5.23924e-13 	0 	0
-2.02703 	348.432 	100000 	0.999645 	5.23978e-13 	0 	0
-2.01702 	348.432 	100000 	0.999645 	5.24032e-13 	0 	0
-2.00701 	348.432 	100000 	0.999645 	5.24086e-13 	0 	0
-1.997 	348.432 	100000 	0.999645 	5.2414e-13 	0 	0
-1.98699 	348.432 	100000 	0.999645 	5.24194e-13 	0 	0
-1.97698 	348.432 	100000 	0.999645 	5.24248e-13 	0 	0
-1.96697 	348.432 	100000 	0.999645 	5.24302e-13 	0 	0
-1.95696 	348.432 	100000 	0.999645 	5.24356e-13 	0 	0
-1.94695 	348.432 	100000 	0.999645 	5.16394e-13 	0 	0
-1.93694 	348.432 	100000 	0.999645 	4.90163e-13 	0 	0
-1.92693 	348.432 	100000 	0.999645 	4.63931e-13 	0 	0
-1.91692 	348.432 	100000 	0.999645 	4.377e-13 	0 	0
-1.90691 	348.432 	100000 	0.999645 	4.11469e-13 	0 	0
-1.8969 	348.432 	100000 	0.999645 	3.85238e-13 	0 	0
-1.88689 	348.432 	100000 	0.999645 	3.59007e-13 	0 	0
-1.87688 	348.432 	100000 	0.999645 	3.32776e-13 	0 	0
-1.86687 	348.432 	100000 	0.999645 	3.06545e-13 	0 	0
-1.85686 	348.432 	100000 	0.999645 	2.80314e-13 	0 	0
-1.84685 	348.432 	100000 	0.999645 	2.5926e-13 	0 	0
-1.83684 	348.432 	100000 	0.999645 	2.49465e-13 	0 	0
-1.82683 	348.432 	100000 	0.999645 	2.3967e-13 	0 	0
-1.81682 	348.432 	100000 	0.999645 	2.29874e-13 	0 	0
-1.80681 	348.432 	100000 	0.999645 	2.20079e-13 	0 	0
-1.7968 	348.432 	100000 	0.999645 	2.10283e-13 	0 	0
-1.78679 	348.432 	100000 	0.999645 	2.00488e-13 	0 	0
-1.77678 	348.432 	100000 	0.999645 	1.90693e-13 	0 	0
-1.76677 	348.432 	100000 	0.999645 	1.80897e-13 	0 	0
-1.75676 	348.432 	100000 	0.999645 	1.71102e-13 	0 	0
-1.74675 	348.432 	100000 	0.999645 	5.68575e-11 	0 	0
-1.73674 	348.432 	100000 	0.999645 	2.31297e-10 	0 	0
-1.72673 	348.432 	100000 	0.999645 	4.05737e-10 	0 	0
-1.71672 	348.432 	100000 	0.999645 	5.80177e-10 	0 	0
-1.70671 	348.432 	100000 	0.999645 	7.54617e-10 	0 	0
-1.6967 	348.432 	100000 	0.999645 	9.29057e-10 	0 	0
-1.68669 	348.432 	100000 	0.999645 	1.1035e-09 	0 	0
-1.67668 	348.432 	100000 	0.999645 	1.27794e-09 	0 	0
-1.66667 	348.432 	100000 	0.999645 	1.45238e-09 	0 	0
-1.65666 	348.432 	100000 	0.999645 	1.62682e-09 	0 	0
-1.64665 	348.432 	100000 	0.999645 	3.45688e-07 	0 	0
-1.63664 	348.432 	100000 	0.999645 	1.37239e-06 	0 	0
-1.62663 	348.432 	100000 	0.999645 	2.39909e-06 	0 	0
-1.61662 	348.432 	100000 	0.999645 	3.4258e-06 	0 	0
-1.60661 	348.432 	100000 	0.999645 	4.4525e-06 	0 	0
-1.5966 	348.432 	100000 	0.999645 	5.4792e-06 	0 	0
-1.58659 	348.432 	100000 	0.999645 	6.5059e-06 	0 	0
-1.57658 	348.432 	100000 	0.999645 	7.53261e-06 	0 	0
-1.56657 	348.432 	100000 	0.999645 	8.55931e-06 	0 	0
-1.55656 	348.432 	100000 	0.999645 	9.58601e-06 	0 	0
-1.54655 	348.432 	99999.9 	0.999645 	0.000177664 	0 	0
-1.53654 	348.432 	99999.8 	0.999643 	0.000662897 	0 	0
-1.52653 	348.432 	99999.6 	0.999642 	0.00114813 	0 	0
-1.51652 	348.431 	99999.4 	0.999641 	0.00163336 	0 	0
-1.50651 	348.431 	99999.2 	0.999639 	0.0021186 	0 	0
-1.4965 	348.431 	99999 	0.999638 	0.00260383 	0 	0
-1.48649 	348.431 	99998.9 	0.999637 	0.00308906 	0 	0
-1.47648 	348.431 	99998.7 	0.999635 	0.0035743 	0 	0
-1.46647 	348.43 	99998.5 	0.999634 	0.00405953 	0 	0
-1.45646 	348.43 	99998.3 	0.999633 	0.00454476 	0 	0
-1.44645 	348.426 	99994.5 	0.999605 	0.0148545 	0 	0
-1.43644 	348.416 	99983.9 	0.99953 	0.0430142 	0 	0
-1.42643 	348.405 	99973.4 	0.999455 	0.071174 	0 	0
-1.41642 	348.395 	99962.9 	0.999379 	0.0993338 	0 	0
-1.40641 	348.385 	99952.3 	0.999304 	0.127494 	0 	0
-1.3964 	348.374 	99941.8 	0.999229 	0.155653 	0 	0
-1.38639 	348.364 	99931.3 	0.999154 	0.183813 	0 	0
-1.37638 	348.353 	99920.7 	0.999078 	0.211973 	0 	0
-1.36637 	348.343 	99910.2 	0.999003 	0.240133 	0 	0
-1.35636 	348.333 	99899.7 	0.998928 	0.268293 	0 	0
-1.34635 	348.283 	99850 	0.998571 	0.40178 	0 	0
-1.33634 	348.166 	99732.1 	0.997726 	0.71851 	0 	0
-1.32633 	348.049 	99614.2 	0.996881 	1.03524 	0 	0
-1.31632 	347.931 	99496.3 	0.996035 	1.35197 	0 	0
-1.30631 	347.814 	99378.4 	0.99519 	1.6687 	0 	0
-1.2963 	347.697 	99260.5 	0.994344 	1.98543 	0 	0
-1.28629 	347.579 	99142.6 	0.993499 	2.30216 	0 	0
-1.27628 	347.462 	99024.7 	0.992653 	2.61889 	0 	0
-1.26627 	347.345 	98906.8 	0.991808 	2.93561 	0 	0
-1.25626 	347.227 	98788.9 	0.990962 	3.25234 	0 	0
-1.24625 	347.002 	98565.2 	0.989351 	3.86195 	0 	0
-1.23624 	346.595 	98165.2 	0.986463 	4.95969 	0 	0
-1.22623 	346.189 	97765.2 	0.983576 	6.05743 	0 	0
-1.21622 	345.782 	97365.2 	0.980688 	7.15516 	0 	0
-1.20621 	345.376 	96965.2 	0.9778 	8.2529 	0 	0
-1.1962 	344.97 	96565.1 	0.974913 	9.35064 	0 	0
-1.18619 	344.563 	96165.1 	0.972025 	10.4484 	0 	0
-1.17618 	344.157 	95765.1 	0.969137 	11.5461 	0 	0
-1.16617 	343.75 	95365.1 	0.96625 	12.6439 	0 	0
-1.15616 	343.344 	94965.1 	0.963362 	13.7416 	0 	0
-1.14615 	342.832 	94472.4 	0.959779 	15.1265 	0 	0
-1.13614 	342.152 	93831.5 	0.955086 	16.97 	0 	0
-1.12613 	341.472 	93190.7 	0.950393 	18.8135 	0 	0
-1.11612 	340.793 	92549.9 	0.9457 	20.657 	0 	0
-1.10611 	340.113 	91909.1 	0.941007 	22.5006 	0 	0
-1.0961 	339.433 	91268.2 	0.936314 	24.3441 	0 	0
-1.08609 	338.753 	90627.4 	0.931621 	26.1876 	0 	0
-1.07608 	338.073 	89986.6 	0.926928 	28.0311 	0 	0
-1.06607 	337.393 	89345.7 	0.922234 	29.8746 	0 	0
-1.05606 	336.713 	88704.9 	0.917541 	31.7182 	0 	0
-1.04605 	335.985 	88035.3 	0.912593 	33.7006 	0 	0
-1.03604 	335.184 	87321.6 	0.907254 	35.8958 	0 	0
-1.02603 	334.383 	86608 	0.901915 	38.0909 	0 	0
-1.01602 	333.582 	85894.3 	0.896576 	40.2861 	0 	0
-1.00601 	332.78 	85180.6 	0.891236 	42.4813 	0 	0
-0.995996 	331.979 	84466.9 	0.885897 	44.6765 	0 	0
-0.985986 	331.178 	83753.3 	0.880558 	46.8716 	0 	0
-0.975976 	330.376 	83039.6 	0.875219 	49.0668 	0 	0
-0.965966 	329.575 	82325.9 	0.86988 	51.262 	0 	0
-0.955956 	328.774 	81612.2 	0.864541 	53.4572 	0 	0
-0.945946 	327.959 	80904.5 	0.859193 	55.7022 	0 	0
-0.935936 	327.123 	80205.5 	0.853833 	58.0205 	0 	0
-0.925926 	326.288 	79506.5 	0.848472 	60.3388 	0 	0
-0.915916 	325.452 	78807.5 	0.843112 	62.6571 	0 	0
-0.905906 	324.617 	78108.5 	0.837752 	64.9754 	0 	0
-0.895896 	323.781 	77409.5 	0.832391 	67.2936 	0 	0
-0.885886 	322.946 	76710.5 	0.827031 	69.6119 	0 	0
-0.875876 	322.111 	76011.5 	0.821671 	71.9302 	0 	0
-0.865866 	321.275 	75312.5 	0.81631 	74.2485 	0 	0
-0.855856 	320.44 	74613.5 	0.81095 	76.5668 	0 	0
-0.845846 	319.601 	73930.5 	0.805656 	78.9063 	0 	0
-0.835836 	318.759 	73270.2 	0.800458 	81.2758 	0 	0
-0.825826 	317.917 	72609.8 	0.795259 	83.6453 	0 	0
-0.815816 	317.074 	71949.4 	0.79006 	86.0147 	0 	0
-0.805806 	316.232 	71289 	0.784861 	88.3842 	0 	0
-0.795796 	315.389 	70628.6 	0.779662 	90.7537 	0 	0
-0.785786 	314.547 	69968.3 	0.774463 	93.1231 	0 	0
-0.775776 	313.704 	69307.9 	0.769264 	95.4926 	0 	0
-0.765766 	312.862 	68647.5 	0.764065 	97.8621 	0 	0
-0.755756 	312.019 	67987.1 	0.758866 	100.232 	0 	0
-0.745746 	311.177 	67344.9 	0.753754 	102.615 	0 	0
-0.735736 	310.335 	66727.3 	0.748758 	105.018 	0 	0
-0.725726 	309.492 	66109.8 	0.743762 	107.421 	0 	0
-0.715716 	308.65 	65492.2 	0.738766 	109.824 	0 	0
-0.705706 	307.807 	64874.6 	0.733771 	112.227 	0 	0
-0.695696 	306.965 	64257 	0.728775 	114.63 	0 	0
-0.685686 	306.122 	63639.4 	0.723779 	117.033 	0 	0
-0.675676 	305.28 	63021.8 	0.718783 	119.436 	0 	0
-0.665666 	304.437 	62404.2 	0.713787 	121.838 	0 	0
-0.655656 	303.595 	61786.6 	0.708792 	124.241 	0 	0
-0.645646 	302.753 	61187.3 	0.703886 	126.658 	0 	0
-0.635636 	301.912 	60611.5 	0.699097 	129.091 	0 	0
-0.625626 	301.07 	60035.8 	0.694308 	131.525 	0 	0
-0.615616 	300.229 	59460 	0.689519 	133.959 	0 	0
-0.605606 	299.387 	58884.3 	0.68473 	136.392 	0 	0
-0.595596 	298.546 	58308.5 	0.679941 	138.826 	0 	0
-0.585586 	297.704 	57732.8 	0.675153 	141.259 	0 	0
-0.575576 	296.863 	57157 	0.670364 	143.693 	0 	0
-0.565566 	296.021 	56581.3 	0.665575 	146.127 	0 	0
-0.555556 	295.18 	56005.5 	0.660786 	148.56 	0 	0
-0.545546 	294.339 	55447.5 	0.656087 	151.01 	0 	0
-0.535536 	293.498 	54911.6 	0.6515 	153.479 	0 	0
-0.525526 	292.657 	54375.7 	0.646914 	155.947 	0 	0
-0.515516 	291.816 	53839.7 	0.642327 	158.416 	0 	0
-0.505506 	290.975 	53303.8 	0.637741 	160.885 	0 	0
-0.495495 	290.134 	52767.9 	0.633154 	163.354 	0 	0
-0.485485 	289.293 	52232 	0.628567 	165.823 	0 	0
-0.475475 	288.452 	51696 	0.623981 	168.292 	0 	0
-0.465465 	287.611 	51160.1 	0.619394 	170.761 	0 	0
-0.455455 	286.77 	50624.2 	0.614808 	173.229 	0 	0
-0.445445 	285.928 	50105 	0.610308 	175.716 	0 	0
-0.435435 	285.084 	49606 	0.605912 	178.223 	0 	0
-0.425425 	284.241 	49107 	0.601516 	180.73 	0 	0
-0.415415 	283.397 	48608 	0.59712 	183.238 	0 	0
-0.405405 	282.554 	48109 	0.592724 	185.745 	0 	0
-0.395395 	281.71 	47610 	0.588328 	188.252 	0 	0
-0.385385 	280.866 	47110.9 	0.583932 	190.76 	0 	0
-0.375375 	280.023 	46611.9 	0.579536 	193.267 	0 	0
-0.365365 	279.179 	46112.9 	0.57514 	195.774 	0 	0
-0.355355 	278.335 	45613.9 	0.570744 	198.282 	0 	0
-0.345345 	277.491 	45132.1 	0.566444 	200.806 	0 	0
-0.335335 	276.646 	44670 	0.562253 	203.351 	0 	0
-0.325325 	275.801 	44208 	0.558063 	205.895 	0 	0
-0.315315 	274.956 	43746 	0.553873 	208.44 	0 	0
-0.305305 	274.111 	43283.9 	0.549682 	210.984 	0 	0
-0.295295 	273.266 	42821.9 	0.545492 	213.529 	0 	0
-0.285285 	272.421 	42359.9 	0.541302 	216.073 	0 	0
-0.275275 	271.576 	41897.8 	0.537111 	218.618 	0 	0
-0.265265 	270.732 	41435.8 	0.532921 	221.163 	0 	0
-0.255255 	269.887 	40973.8 	0.528731 	223.707 	0 	0
-0.245245 	269.049 	40531.2 	0.524659 	226.252 	0 	0
-0.235235 	268.218 	40110.1 	0.520717 	228.799 	0 	0
-0.225225 	267.388 	39689.1 	0.516775 	231.345 	0 	0
-0.215215 	266.558 	39268 	0.512833 	233.891 	0 	0
-0.205205 	265.728 	38847 	0.508891 	236.437 	0 	0
-0.195195 	264.897 	38425.9 	0.504949 	238.983 	0 	0
-0.185185 	264.067 	38004.9 	0.501008 	241.529 	0 	0
-0.175175 	263.237 	37583.8 	0.497066 	244.075 	0 	0
-0.165165 	262.407 	37162.8 	0.493124 	246.622 	0 	0
-0.155155 	261.577 	36741.7 	0.489182 	249.168 	0 	0
-0.145145 	260.79 	36349.7 	0.485436 	251.643 	0 	0
-0.135135 	260.05 	35988.3 	0.481897 	254.043 	0 	0
-0.125125 	259.31 	35627 	0.478358 	256.443 	0 	0
-0.115115 	258.57 	35265.7 	0.474819 	258.844 	0 	0
-0.105105 	257.83 	34904.4 	0.47128 	261.244 	0 	0
-0.0950951 	257.09 	34543.1 	0.467741 	263.644 	0 	0
-0.0850851 	256.35 	34181.7 	0.464203 	266.044 	0 	0
-0.0750751 	255.61 	33820.4 	0.460664 	268.444 	0 	0
-0.0650651 	254.87 	33459.1 	0.457125 	270.845 	0 	0
-0.0550551 	254.13 	33097.8 	0.453586 	273.245 	0 	0
-0.045045 	253.408 	32788.6 	0.450648 	275.35 	0 	0
-0.035035 	252.705 	32532.7 	0.448322 	277.155 	0 	0
-0.025025 	252.002 	32276.7 	0.445997 	278.959 	0 	0
-0.015015 	251.299 	32020.8 	0.443671 	280.763 	0 	0
-0.00500501 	250.596 	31764.8 	0.441345 	282.568 	0 	0
0.00500501 	249.892 	31508.9 	0.43902 	284.372 	0 	0
0.015015 	249.189 	31252.9 	0.436694 	286.177 	0 	0
0.025025 	248.486 	30997 	0.434368 	287.981 	0 	0
0.035035 	247.783 	30741 	0.432043 	289.785 	0 	0
0.045045 	247.08 	30485.1 	0.429717 	291.59 	0 	0
0.0550551 	246.668 	30319.6 	0.428127 	292.783 	0 	0
0.0650651 	246.541 	30242.7 	0.427257 	293.378 	0 	0
0.0750751 	246.414 	30165.7 	0.426387 	293.972 	0 	0
0.0850851 	246.287 	30088.8 	0.425517 	294.566 	0 	0
0.0950951 	246.161 	30011.9 	0.424647 	295.161 	0 	0
0.105105 	246.034 	29935 	0.423777 	295.755 	0 	0
0.115115 	245.907 	29858.1 	0.422907 	296.35 	0 	0
0.125125 	245.78 	29781.2 	0.422038 	296.944 	0 	0
0.135135 	245.653 	29704.3 	0.421168 	297.538 	0 	0
0.145145 	245.527 	29627.4 	0.420298 	298.133 	0 	0
0.155155 	245.572 	29633.7 	0.420309 	298.085 	0 	0
0.165165 	245.779 	29718.5 	0.421149 	297.433 	0 	0
0.175175 	245.987 	29803.2 	0.42199 	296.781 	0 	0
0.185185 	246.194 	29887.9 	0.42283 	296.129 	0 	0
0.195195 	246.401 	29972.7 	0.423671 	295.477 	0 	0
0.205205 	246.609 	30057.4 	0.424511 	294.824 	0 	0
0.215215 	246.816 	30142.1 	0.425351 	294.172 	0 	0
0.225225 	247.024 	30226.9 	0.426192 	293.52 	0 	0
0.235235 	247.231 	30311.6 	0.427032 	292.868 	0 	0
0.245245 	247.438 	30396.4 	0.427873 	292.216 	0 	0
0.255255 	247.571 	30433.6 	0.428171 	291.937 	0 	0
0.265265 	247.636 	30427.9 	0.427979 	291.997 	0 	0
0.275275 	247.701 	30422.2 	0.427786 	292.057 	0 	0
0.285285 	247.766 	30416.5 	0.427594 	292.116 	0 	0
0.295295 	247.831 	30410.7 	0.427402 	292.176 	0 	0
0.305305 	247.896 	30405 	0.42721 	292.236 	0 	0
0.315315 	247.961 	30399.3 	0.427017 	292.295 	0 	0
0.325325 	248.026 	30393.6 	0.426825 	292.355 	0 	0
0.335335 	248.091 	30387.9 	0.426633 	292.415 	0 	0
0.345345 	248.156 	30382.2 	0.42644 	292.474 	0 	0
0.355355 	248.256 	30376.2 	0.426186 	292.537 	0 	0
0.365365 	248.387 	30370.2 	0.425877 	292.603 	0 	0
0.375375 	248.518 	30364.1 	0.425568 	292.668 	0 	0
0.385385 	248.65 	30358 	0.425259 	292.734 	0 	0
0.395395 	248.781 	30351.9 	0.42495 	292.8 	0 	0
0.405405 	248.912 	30345.9 	0.424641 	292.865 	0 	0
0.415415 	249.043 	30339.8 	0.424332 	292.931 	0 	0
0.425425 	249.174 	30333.7 	0.424023 	292.997 	0 	0
0.435435 	249.305 	30327.6 	0.423714 	293.062 	0 	0
0.445445 	249.436 	30321.6 	0.423406 	293.128 	0 	0
0.455455 	249.668 	30318.3 	0.422971 	293.171 	0 	0
0.465465 	249.983 	30317.5 	0.422431 	293.194 	0 	0
0.475475 	250.298 	30316.6 	0.421891 	293.217 	0 	0
0.485485 	250.613 	30315.7 	0.421351 	293.241 	0 	0
0.495495 	250.929 	30314.9 	0.420811 	293.264 	0 	0
0.505506 	251.244 	30314 	0.42027 	293.287 	0 	0
0.515516 	251.559 	30313.2 	0.41973 	293.311 	0 	0
0.525526 	251.874 	30312.3 	0.41919 	293.334 	0 	0
0.535536 	252.19 	30311.4 	0.41865 	293.357 	0 	0
0.545546 	252.505 	30310.6 	0.41811 	293.381 	0 	0