# Probe 0 (0.8245 0 0.021)
# Probe 1 (0.8245 0 0.061)
# Probe 2 (0.8245 0 0.101)
# Probe 3 (0.8245 0 0.141)
# Probe 4 (0.8035 0 0.162)
# Probe 5 (0.7635 0 0.162)
# Probe 6 (0.7235 0 0.162)
# Probe 7 (0.6835 0 0.162)
#       Probe             0             1             2             3             4             5             6             7
#        Time
   0.00120482       3.62614       3.19081       2.70553       2.13931       1.47885       1.22437       1.01909      0.828985
   0.00265769     -0.290864     -0.683465      -1.07577      -1.46631      -1.67216      -1.66808      -1.66398      -1.65934
   0.00439595      0.799944        0.3954    -0.0228331     -0.461452     -0.793552     -0.862808     -0.918152     -0.968491
   0.00647429       1.08812      0.679913      0.254087     -0.198058     -0.564414     -0.652317     -0.722327     -0.785976
    0.0089355       1.07369      0.666046      0.241249     -0.209336     -0.572853     -0.658751     -0.727174     -0.788876
    0.0118731       1.06554      0.657678      0.232465     -0.218644     -0.582993     -0.669061     -0.738074     -0.800736
    0.0153981       1.07449      0.666596      0.241165     -0.210544     -0.576953     -0.663277     -0.732393     -0.795206
    0.0196282       1.10997      0.701712      0.275648     -0.177337     -0.547901     -0.635875     -0.706616     -0.771114
    0.0246515       1.16346      0.754739      0.327412      -0.12816     -0.506026     -0.596988     -0.670426     -0.737342
    0.0304475       1.22904       0.81959      0.390705    -0.0679483     -0.455091     -0.549327     -0.626144     -0.696225
    0.0374028       1.26365      0.853672      0.423785     -0.036827     -0.430681     -0.525577      -0.60368     -0.675258
    0.0452274       1.24469      0.834677      0.404823    -0.0557437     -0.451008     -0.541962     -0.618136     -0.688374
    0.0543562       1.23859      0.828841      0.399206    -0.0619815     -0.461778     -0.549452     -0.624762     -0.694409
    0.0657671        1.2827      0.871951      0.440021    -0.0259036     -0.440375     -0.526713     -0.603034     -0.673975
    0.0771781        1.2521      0.841062      0.408679    -0.0584006     -0.481068     -0.558916        -0.632     -0.701197
     0.088589       1.23894      0.827636      0.394437    -0.0753781     -0.509463     -0.577861     -0.647165     -0.713449
          0.1       1.17729      0.766035      0.332748     -0.138058     -0.580431     -0.636302     -0.700179     -0.762572
       0.1125       1.24687      0.833625      0.395845    -0.0845893     -0.557628     -0.609508     -0.674625     -0.739039
        0.125       1.30377      0.888519      0.446317      -0.04302     -0.545655       -0.5886      -0.65295     -0.718069
     0.135714       1.21825      0.803994      0.363702     -0.124112     -0.633507     -0.654904     -0.710241     -0.769513
     0.144898       1.25733      0.841688      0.398021    -0.0974387     -0.634436     -0.645962      -0.69936     -0.758264
     0.154082        1.2705      0.853417       0.40651    -0.0960741     -0.655637     -0.657245     -0.707811     -0.765377
     0.163265       1.25893      0.840385      0.390309     -0.119077     -0.701185     -0.690752     -0.737102      -0.79204
     0.170612       1.13663      0.718934      0.270601     -0.236222     -0.820067      -0.78604     -0.820841     -0.867423
     0.177959       1.13738      0.718831      0.268104     -0.244937     -0.847185     -0.804951      -0.83664     -0.881577
     0.185306       1.24797      0.826263      0.368833     -0.157179     -0.795801     -0.753022     -0.787838     -0.836442
     0.192653       1.36422      0.938787      0.473303    -0.0681331      -0.74679     -0.701726      -0.73885     -0.790466
          0.2       1.21511      0.789875      0.324782     -0.215946     -0.893553     -0.823961     -0.848169      -0.88901
     0.206667       1.16765      0.741757      0.275146     -0.269701     -0.963958     -0.878344     -0.895919     -0.932481
     0.212889       1.27404      0.844025      0.368752      -0.19233     -0.928215     -0.839742      -0.85972     -0.899326
     0.219111       1.32162      0.888308      0.405957      -0.16783     -0.932793     -0.836458     -0.854102     -0.892931
     0.224889       1.17286      0.741121      0.262137      -0.30639      -1.06372     -0.941862     -0.946137     -0.976013
     0.230667       1.39849      0.960071      0.466611     -0.129069     -0.951411     -0.838465     -0.851316     -0.889462
     0.236444       1.63193       1.18578      0.676458     0.0531788     -0.832045     -0.723783     -0.743579     -0.789075
     0.241741       1.45408       1.00924      0.503034     -0.114084     -0.988254     -0.847583     -0.850234      -0.88329
     0.247037       1.49295       1.04394      0.528702     -0.105398      -1.01802     -0.869126     -0.868302     -0.899881
     0.252333       1.69744       1.24025      0.708182     0.0445867     -0.933207     -0.786753     -0.790731     -0.828044
       0.2571       1.84742       1.38301       0.83645      0.148494     -0.885257     -0.731296     -0.735896     -0.775792
     0.261867       1.71708       1.25212      0.705013     0.0172272       -1.0146     -0.832404     -0.821454     -0.850452
     0.266633        1.8375       1.36574      0.804286     0.0910052     -0.996117      -0.80847     -0.796771     -0.827308
       0.2714       2.12965       1.64511       1.05802      0.301892     -0.874207     -0.691953      -0.68727     -0.725081
     0.275486        2.2579       1.76541       1.16292      0.382189     -0.849638     -0.651037     -0.643619     -0.681566
     0.279571        2.2125       1.71363       1.09902      0.300413     -0.960116     -0.738697     -0.718798     -0.747717
     0.283657       1.91497       1.41885      0.810926     0.0259231      -1.20221     -0.935547     -0.889104     -0.898887
     0.287743       2.25104       1.74031       1.10243      0.266145      -1.06622     -0.809571     -0.772051     -0.791451
     0.291829       2.50745       1.98158       1.31478      0.434432     -0.978565     -0.718477     -0.682739     -0.705655
     0.295914       2.81975       2.27505       1.57206      0.636427     -0.877531     -0.615178     -0.582518      -0.61012
          0.3       2.63534       2.08645       1.37792      0.439839      -1.06768     -0.758368     -0.700746     -0.711492
     0.303448       2.28922       1.74644        1.0512      0.136273      -1.33148     -0.960273     -0.871184     -0.861493
     0.306778       2.56262       2.00362       1.27614      0.309604      -1.25305     -0.885911     -0.800124      -0.79486
     0.310107       2.76443       2.18806       1.42889      0.418149      -1.21343     -0.840792     -0.752441     -0.746949
     0.313317       3.00867       2.41244       1.61691      0.554991      -1.15998      -0.78145     -0.691783     -0.687431
     0.316413       3.17649       2.56128       1.73191      0.624626      -1.15919     -0.766412     -0.669885     -0.662271
     0.319399       3.02223       2.40045       1.56207       0.44925      -1.33382     -0.904335      -0.78748     -0.767316
     0.322384       2.85326       2.22501       1.37791      0.260117      -1.51349      -1.04742     -0.906621     -0.871152
     0.325258       3.18717       2.53416        1.6416      0.458778      -1.42098     -0.960921     -0.822482     -0.791901
     0.328027       3.24244       2.57171       1.65025      0.434882      -1.48143      -1.00191     -0.849224     -0.810499
     0.330795       3.29292        2.6062       1.65929      0.416491      -1.52612      -1.02985      -0.86081      -0.81348
     0.333457        3.4709       2.76253       1.77901      0.491014      -1.51304      -1.00698     -0.828965      -0.77882
     0.336016       3.73331       2.99678       1.96494      0.616025      -1.47817      -0.95862     -0.778736     -0.730947
     0.338575       3.95017       3.18273       2.09989      0.690177       -1.4852     -0.960118      -0.77388      -0.72663
     0.341032       4.00973       3.21943       2.10202      0.657639      -1.55013      -1.01575     -0.810174     -0.754986
     0.343391       4.01768       3.20986       2.06793      0.602596      -1.62047      -1.04495     -0.823915     -0.758892
      0.34575       4.21634       3.37741       2.18547      0.662595      -1.63306      -1.04183      -0.81365     -0.745759
      0.34801       4.42642       3.55286       2.30587      0.720893      -1.65724      -1.03027     -0.799695     -0.730619
     0.350271       4.55329       3.64215       2.33827      0.695934      -1.73783      -1.09423      -0.84873     -0.769574
     0.352433       4.71116       3.76369       2.40476      0.705782      -1.78636       -1.1199     -0.868339     -0.779287
     0.354595       4.75125       3.77187       2.36982      0.635617      -1.87807      -1.18343     -0.914841     -0.814316
     0.356659        4.9274       3.91274       2.45878      0.672298      -1.89817       -1.1844     -0.906057     -0.800221
     0.358629       5.09689       4.04468       2.53661      0.697301      -1.92904      -1.19821     -0.909819     -0.798584
     0.360599       5.25059       4.15712       2.59179      0.700615      -1.96983      -1.22142     -0.919449     -0.799905
     0.362475       5.50922       4.36746       2.73147      0.769312      -1.97496       -1.2138     -0.905106     -0.781741
     0.364351       5.76659       4.56861       2.85373      0.817571      -1.99362       -1.2203     -0.900689     -0.769926
     0.366134       6.00893       4.76183       2.97847      0.877923       -1.9941      -1.20396     -0.877422     -0.741387
     0.367916       6.31233       5.00403       3.13406      0.949585      -2.00503       -1.2056     -0.876789     -0.732521
     0.369605       6.39862        5.0496       3.12967       0.90873      -2.06596      -1.24252     -0.889562     -0.741051
     0.371293       6.68038       5.26639       3.25954      0.959372      -2.09042      -1.26072     -0.892967     -0.740929
     0.372982       6.94687       5.46028       3.36082      0.982727      -2.12727      -1.28424     -0.904397     -0.745837
     0.374571       7.11064       5.56818       3.40002      0.968592      -2.17387      -1.30615     -0.911744     -0.745379
     0.376161       7.45852       5.83354       3.55709       1.02966      -2.19654      -1.31995     -0.911933     -0.738175
     0.377651       7.64396       5.96438       3.61696       1.02939      -2.23489      -1.33548     -0.914938     -0.734299
     0.379141        8.0105       6.23449       3.76118       1.06331      -2.29123      -1.38141     -0.944478     -0.754301
     0.380631       8.18616       6.30953       3.71756       0.93515      -2.43783      -1.49359      -1.03213     -0.824647
     0.382014       8.54865       6.58942       3.89915       1.03579      -2.40862      -1.45434     -0.988967     -0.781345
     0.383398       8.84578        6.7927       3.99908        1.0628      -2.45465       -1.4896      -1.00551     -0.788554
     0.384781       8.99148       6.85062       3.96885      0.982373      -2.55191      -1.55782      -1.05275     -0.823007
     0.386049       8.91354       6.74661       3.84666       0.86646      -2.63109      -1.59451      -1.06797     -0.826253
     0.387318       9.31369       7.03854       4.00832      0.920103      -2.66258      -1.61894       -1.0795      -0.83054
     0.388586       9.86166       7.44138       4.23655         1.007      -2.67546      -1.62775       -1.0748     -0.817689
     0.389854       10.4114       7.83339       4.44925       1.08477      -2.70143      -1.63182      -1.06822     -0.804742
     0.391122       10.8498       8.12233       4.58177       1.11086      -2.75391      -1.65444      -1.07807     -0.807371
     0.392232       10.8991       8.10205       4.50205       1.00725      -2.86503      -1.70796      -1.11362     -0.834752
     0.393342       11.2082       8.30407       4.58959       1.00879      -2.94711       -1.7692      -1.15937     -0.871736
     0.394451       11.1548       8.17487       4.41563      0.846934      -3.11997      -1.89656      -1.24753     -0.938749
     0.395561       11.2916       8.21424       4.37784       0.77649      -3.20734      -1.94216      -1.28499      -0.96593
     0.396671       11.6873       8.47718       4.51102      0.818876      -3.23902      -1.94654      -1.28987     -0.963497
     0.397781         12.12       8.74735       4.63117      0.843528      -3.28853      -1.95889       -1.2809     -0.952191
      0.39889       12.5701       9.03582       4.77005      0.883437      -3.32356      -1.96513      -1.27604      -0.93928
          0.4       12.9607       9.24365       4.82737      0.853106      -3.41349      -2.01602      -1.31063     -0.964384
        0.401       12.9316       9.17093       4.73956      0.770321      -3.49632      -2.04255      -1.31867     -0.972049
      0.40198       13.3649       9.42716       4.85586      0.801985      -3.53199      -2.07768      -1.35139      -0.98441
     0.402951       13.8379       9.69593       4.96889      0.827304      -3.56306      -2.11091      -1.37451     -0.997057
     0.403902       14.0405       9.74111       4.91052      0.720062      -3.70272      -2.22354      -1.47457      -1.09001
     0.404835       14.4237         9.931       4.97167      0.712526      -3.76476      -2.26348      -1.50425      -1.11311
      0.40575       14.8097       10.1088       5.02889       0.71613      -3.79864      -2.27092      -1.50156      -1.10487
     0.406648       15.2838       10.3796       5.16523      0.760864      -3.82999      -2.28745       -1.5054      -1.09979
     0.407528       15.1941       10.1258       4.88924      0.538001      -3.97324      -2.38082      -1.57014      -1.14543
     0.408393       15.7022       10.3947       5.01933      0.584307      -3.99471      -2.38771      -1.56689      -1.13574
     0.409241       16.3001       10.7354       5.19238      0.643054      -4.01998      -2.39787      -1.56732      -1.12891
     0.410081       17.1357       11.1849       5.41147      0.722037      -4.03921      -2.40399      -1.56734      -1.12412
     0.410906        17.897       11.5575       5.58069      0.770965      -4.07682      -2.40945      -1.57139      -1.12835
     0.411716       18.6349       11.9076       5.73506      0.811921      -4.11498      -2.43583      -1.59053      -1.14874
     0.412512        19.254       12.1629       5.83677      0.830912      -4.15402      -2.49316      -1.63941      -1.18886
     0.413293       19.6768       12.2955       5.88161      0.822478      -4.20515      -2.53023      -1.66503      -1.21244
     0.414067        20.524       12.6731       6.07275       0.88662      -4.22879      -2.54876      -1.67767      -1.21367
     0.414827       21.3863       12.9665        6.1989      0.926299      -4.25193      -2.56189      -1.68199      -1.20935
     0.415581       22.3095       13.2707       6.33098       0.97397      -4.26883      -2.57375      -1.68631       -1.2075
     0.416322        23.275       13.5934       6.46592       1.02287      -4.28617      -2.58348      -1.68766      -1.20293
     0.417056       24.3042       13.9374       6.62578       1.08513        -4.302       -2.5975      -1.69623      -1.20797
     0.417783       25.2842       14.2314       6.77372       1.13962      -4.32186      -2.61231      -1.70299      -1.20922
     0.418504       26.9527       14.8548       7.12355       1.29851      -4.30987      -2.60786      -1.69612      -1.19986
     0.419226       29.4665       15.5543       7.47072       1.44125      -4.30623       -2.6102      -1.69361      -1.19419
      0.41994       31.4046        15.941         7.713       1.54041      -4.31849      -2.61965      -1.70188      -1.20322
     0.420662       34.3042       16.6639       8.07654       1.68525      -4.32025      -2.63369      -1.72068      -1.22713
      0.42139       37.2016        17.374       8.47472       1.84018      -4.32896      -2.65551      -1.74731      -1.26203
     0.422131       40.2688       17.9885       8.82077       1.95459      -4.34897      -2.67841      -1.76881      -1.27753
     0.422895       45.5526       18.8354       9.30353       2.15664      -4.33238      -2.68064       -1.7777      -1.28984
     0.423643       52.1255       19.1584       9.49565       2.18654      -4.41235      -2.73293      -1.81595      -1.32079
     0.424384       59.2779       19.3763       9.70805       2.24812      -4.46373      -2.76894      -1.83782      -1.33179
     0.425119       67.8669       19.5399       10.0064       2.36992      -4.48654      -2.78804      -1.85287      -1.33763
     0.425846       79.5215       19.7227       10.4237        2.5141      -4.50983      -2.80429      -1.86315      -1.34305
     0.426566       93.8646       19.2126       10.7493        2.5979      -4.56576      -2.84156      -1.88927      -1.36181
     0.427286       123.535       18.7744       11.3879       2.80358      -4.56887      -2.83992      -1.88567      -1.35966
     0.427998       166.138       17.7399       11.9101       2.93383       -4.6398      -2.88586      -1.91862      -1.38517
     0.428697       220.421       16.2533       12.3648       3.06636      -4.71578      -2.92647      -1.94425      -1.39825
      0.42939        300.71       15.4199       13.2521       3.47765      -4.68157      -2.91805      -1.95286       -1.4179
     0.430069       409.266       14.5763       13.6411       3.76528      -4.71299      -2.94342      -1.97931      -1.44261
     0.430728       559.181       14.5981       13.7334       4.00489      -4.75378       -2.9596      -1.98979      -1.45153
     0.431376       792.091       15.2844       13.7856       4.29879      -4.76757      -2.95993      -1.98894      -1.45313
     0.432011       1129.76       16.1656       13.3995       4.41429      -4.86507      -3.01451      -2.02124      -1.47207
     0.432641        1552.7       17.2905       12.9228       4.63119      -4.95119        -3.061      -2.04772      -1.48875
     0.433264       2053.08       18.4136       11.9816        4.7376      -5.05979      -3.11408      -2.07816      -1.50927
     0.433882       2632.91       19.9723       10.8341       4.78184      -5.16885      -3.15944      -2.10315      -1.52478
       0.4345       3273.05       22.8492       9.65264       4.88643      -5.26771      -3.19967      -2.12333      -1.53533
     0.435112       3951.04       25.4446       8.44299       4.82946      -5.43606      -3.27377      -2.16371      -1.55449
     0.435719       4673.14       30.0401       7.47576       4.70332      -5.59816      -3.34534      -2.20405      -1.57772
      0.43632       5473.51       38.1921       6.90465       4.40778      -5.78786      -3.44195      -2.26512      -1.61862
      0.43692       6273.23        47.653        6.3983       3.89592       -6.0138      -3.55217      -2.32972      -1.65648
     0.437521       7201.87       57.9539       6.17454       3.12346      -6.29469      -3.70482      -2.42626      -1.71656
     0.438116       8053.59       65.3474       6.77627       2.35313      -6.53851      -3.87147      -2.53973      -1.79555
     0.438706       8671.39       72.9858       7.82875       1.59743      -6.81123      -4.02803      -2.63576       -1.8532
     0.439289       9059.57       78.5096       8.96516      0.763556      -7.07767      -4.18384       -2.7363      -1.92044
     0.439862       9364.27       80.1863       10.8302      0.226817      -7.23966        -4.285      -2.79771      -1.95417
     0.440429       9754.87       207.784       7.96627      -1.33561      -7.74989      -4.59358      -2.99528      -2.08444
     0.440991       9962.94       313.175        9.5531      -1.45644      -7.96267      -4.76193      -3.10846      -2.15924
     0.441553       10132.9       423.539       12.8847     -0.857754      -8.00667      -4.83522      -3.16039      -2.19405
      0.44211       10306.5       549.019       15.5313     -0.275973      -8.08185      -4.92046       -3.2242      -2.23367
     0.442667       10446.6        676.28       17.5858      0.270171      -8.15923       -5.0091      -3.28624      -2.26973
     0.443223       10579.2       803.596       19.4812      0.933684      -8.22216      -5.08739      -3.33975      -2.29958
      0.44378       10763.5       1103.92       12.7484      0.170593      -8.66104      -5.38051      -3.53737      -2.43781
     0.444336       10795.4       1225.15       21.1751        3.7469      -8.00473      -5.06874      -3.35337      -2.31297
     0.444888       10877.1       1371.91       25.8091       6.19667      -7.60945      -4.87595      -3.23921      -2.22632
     0.445439       10982.6       1518.62       28.0443       7.52189      -7.49638      -4.83975      -3.23004      -2.21735
      0.44599       11077.7       1743.02       29.4785        8.5549      -7.46505      -4.86783       -3.2659      -2.24182
     0.446541       11206.4       2041.47       30.3141       8.00755      -7.84871       -5.1215         -3.45      -2.37315
     0.447098       11294.9       2379.98        29.734       8.61772      -8.14761       -5.3613      -3.63507        -2.507
     0.447655       11373.8       2714.55       31.2527       10.4979      -8.17774      -5.41712      -3.69318      -2.55492
     0.448218       11437.3       3028.68       31.8771       11.3875      -8.20903      -5.50449      -3.78197      -2.62863
      0.44878       11535.1        3332.9       33.4417       13.0019      -8.04982       -5.4939      -3.81326      -2.66482
      0.44935       11533.8       3577.59       37.9277       13.9399      -7.91099      -5.50445      -3.86093      -2.70945
     0.449925       11506.7       3809.25        51.469       13.7877      -7.92619      -5.59709      -3.96619      -2.79788
     0.450514       11459.8       4072.38       50.0742       15.5081      -7.48538      -5.42844      -3.90468       -2.7748
      0.45111       11438.6       4380.92       53.9973       16.4419      -7.21139      -5.35317      -3.90591      -2.79614
     0.451722       11355.6       4708.64       66.6683       17.6342      -6.86517      -5.23245      -3.88067      -2.79884
     0.452349         11247       5001.27       88.0347       17.3693      -6.47872      -5.08427      -3.84442      -2.79847
     0.452992       11105.3       5125.05       107.122       16.4558      -5.75906      -4.77478      -3.70624      -2.72988
     0.453655       10960.2       5299.04       134.399       15.5773       -5.3776      -4.56473      -3.60247      -2.67802
     0.454336       10762.5       5388.35       192.972       14.5857      -5.18119      -4.45183      -3.56274      -2.66742
     0.455028       10587.7       5495.41       276.698       13.5027      -5.02657      -4.38516      -3.56366      -2.69643
     0.455731       10405.7       5594.14       370.228       14.3973      -4.56073      -4.15881       -3.4838      -2.68104
     0.456433       10231.9        5690.9       434.863       14.2244      -3.90726      -3.64965      -3.19839      -2.52281
     0.457136       10051.3       5751.04       460.824       12.2283      -3.64548      -3.28794      -3.00622      -2.42646
      0.45785       9864.44       5777.57       526.709       13.8626      -4.63542      -3.24703      -2.94195      -2.39096
     0.458565       9675.47       5766.93       598.661        15.488      -4.76353      -3.10863      -2.84245      -2.34213
     0.459292       9509.69        5773.3       693.503       23.6481      -5.90583      -3.15919      -2.84139      -2.34951
     0.460019        9355.2       5772.98       773.171       29.5845      -7.72867      -3.50376      -2.98508      -2.44581
     0.460759       9198.59       5758.57        842.78        38.857       -10.116      -4.06779      -3.24097       -2.6046
     0.461514       9047.44       5737.61       894.779        29.606      -11.0612      -3.93802      -3.07531      -2.50299
     0.462283       8904.61       5709.99       943.012       29.8857       -13.078      -4.09166      -3.05536      -2.48457
     0.463053       8784.13        5703.1       1003.32       33.1977      -16.5703      -4.78616      -3.32425       -2.6361
     0.463839       8673.59       5697.22       1077.52       34.7138      -18.3997      -5.08094      -3.43829      -2.71316
     0.464643       8571.11       5688.02       1155.17       38.4513      -19.8244      -4.92266      -3.27797      -2.61344
     0.465465       8477.64       5677.93       1229.86       44.1873      -22.4458      -5.19486      -3.30748      -2.61709
     0.466307       8389.11       5665.94       1296.57       49.0068      -25.5219      -5.65405        -3.461      -2.69669
     0.467171       8304.66       5648.16       1347.19       51.8024      -26.8082      -5.73829      -3.49996       -2.7135
     0.468035        8233.4       5632.22        1392.4       57.5003       -24.857      -5.11007      -3.30888      -2.63138
     0.468923       8162.95       5613.58       1431.66       76.1572      -27.3263      -6.03934      -3.71361      -2.84082
     0.469837       8099.77       5599.36       1475.65       97.3072      -33.0271      -7.85124      -4.41794      -3.20526
      0.47078       8042.18       5589.94       1523.69       117.315      -29.4873      -6.45398      -3.96416      -3.03089
     0.471722       7999.21       5595.64       1590.64       132.805      -29.6605      -6.46024      -4.00776      -3.08519
     0.472697        7955.6       5600.72       1652.25       144.539      -34.3245      -7.65692      -4.51839      -3.36967
     0.473709       7912.65       5602.45       1710.68       153.602      -36.0567        -8.036       -4.6721      -3.47728
      0.47472        7874.2       5602.36       1763.67        174.87        -35.43      -7.72444      -4.56008      -3.47016
     0.475773        7835.5       5599.91       1806.73       199.661      -35.4209      -8.19167      -4.84865      -3.66697
     0.476827       7799.29       5597.24       1848.15       224.264      -34.9457      -8.79979      -5.15115      -3.86056
      0.47788       7771.51       5602.04       1891.64       246.228       -33.407      -9.46462      -5.50023      -4.09115
     0.478933       7748.74        5605.7       1938.07        268.56      -30.8846      -10.0616      -5.92179      -4.38303
     0.479987       7735.94       5620.83       1997.14       292.497      -28.2631      -10.1216      -6.13056      -4.57077
      0.48104       7730.66       5642.64       2059.52       316.436      -26.5793      -9.88996      -6.20365       -4.6935
     0.482093       7730.66       5667.31       2119.66       342.823      -24.9067      -9.71152      -6.29357      -4.81659
     0.483088        7737.8       5694.85       2174.64       369.186      -22.7285      -9.14624      -6.12182      -4.78495
     0.484083       7744.83       5720.96       2219.36       388.361      -21.0424      -8.87261      -6.10914      -4.83769
     0.485078       7752.88       5746.04       2258.24       399.107      -19.8738      -8.73664      -6.20094      -4.95448
      0.48601       7765.21       5771.65       2295.04       408.582      -18.4107      -8.52266      -6.24816      -5.05157
     0.486943       7778.92       5800.29       2335.12       425.522      -17.7586      -8.46254      -6.39334      -5.22305
     0.487876       7794.05       5830.79       2378.64        446.34      -16.8479      -8.08898      -6.29537      -5.23873
     0.488742       7810.22       5860.09       2420.67       464.851      -16.4526       -7.8612      -6.19846      -5.22624
     0.489608       7828.44       5894.15        2462.8       473.204      -16.0051      -7.82559      -6.28357      -5.34643
     0.490474       7847.02       5930.34       2507.38        483.52      -15.8544      -8.05043       -6.5741      -5.60015
      0.49134       7873.36       5976.32        2559.5       496.657      -15.3231      -7.90971      -6.58389      -5.67156
     0.492206       7903.97       6027.41       2615.14       510.586      -14.8791      -7.81842      -6.63264      -5.76996
     0.493072       7937.78       6082.18       2672.45       525.774      -14.1528      -7.38371      -6.40381      -5.68665
     0.493938       7977.53       6143.27       2734.49       548.878      -13.7491      -7.15044      -6.29116       -5.6673
     0.494804       8018.45       6205.86       2798.51       575.495      -13.8625      -7.34069      -6.49288      -5.86254
      0.49567       8057.87       6267.47       2863.34        604.27      -14.1655      -7.76038      -6.90348      -6.19972
     0.496536       8094.87       6327.22       2928.35       632.301      -13.9524      -7.67395      -6.92408      -6.29597
     0.497402       8127.48       6383.07       2991.54       657.032      -13.9246      -7.74461       -7.0629      -6.47308
     0.498268       8154.53       6433.58       3051.15       679.039      -13.9951      -7.89599       -7.2562      -6.67726
     0.499134       8178.12       6481.42       3108.99       698.769      -14.2953      -8.22387      -7.55477      -6.93869
          0.5       8195.84       6523.97       3164.72       719.025        -14.16      -8.13778      -7.50832      -6.95652
     0.500877       8211.88       6568.16       3229.54       746.038      -13.6095      -7.70797       -7.2102      -6.80123
     0.501747       8225.94       6612.09       3300.08       777.671      -13.4805      -7.63756      -7.20588       -6.8601
     0.502624       8237.31       6654.41       3371.25       810.228      -13.1725      -7.42975      -7.11448      -6.88465
     0.503486        8248.7        6696.5       3442.02       841.997      -13.2661      -7.53635      -7.24657       -7.0432
     0.504347       8259.35       6737.98       3511.72       870.803       -13.103      -7.42221      -7.19251      -7.06443