# Probe 0 (0.8245 0 0.021)
# Probe 1 (0.8245 0 0.061)
# Probe 2 (0.8245 0 0.101)
# Probe 3 (0.8245 0 0.141)
# Probe 4 (0.8035 0 0.162)
# Probe 5 (0.7635 0 0.162)
# Probe 6 (0.7235 0 0.162)
# Probe 7 (0.6835 0 0.162)
#       Probe             0             1             2             3             4             5             6             7
#        Time
   0.00120482       3.83214       3.78921       3.69618       3.52118        3.0684       2.81391       2.60862       2.41853
   0.00265769    -0.0848647    -0.0850652    -0.0851183    -0.0844272    -0.0826061    -0.0785365    -0.0744398    -0.0697963
   0.00439595       1.00594        0.9938      0.967818      0.920426      0.796002      0.726731      0.671385       0.62105
   0.00647429       1.29412       1.27831       1.24474       1.18382       1.02514      0.937222      0.867209      0.803565
    0.0089355       1.27969       1.26445        1.2319       1.17254        1.0167      0.930788      0.862362      0.800665
    0.0118731       1.27154       1.25608       1.22312       1.16323       1.00656      0.920478      0.851463      0.788805
    0.0153981       1.28049         1.265       1.23182       1.17133        1.0126      0.926262      0.857144      0.794335
    0.0196282       1.31597       1.30011        1.2663       1.20454       1.04165      0.953664      0.882921      0.818427
    0.0246515       1.36946       1.35314       1.31806       1.25372       1.08353      0.992551      0.919111      0.852199
    0.0304475       1.43504       1.41799       1.38136       1.31393       1.13446       1.04021      0.963393      0.893316
    0.0374028       1.46965       1.45207       1.41444       1.34505       1.15887       1.06396      0.985857      0.914283
    0.0452274       1.45069       1.43308       1.39547       1.32613       1.13855       1.04758        0.9714      0.901167
    0.0543562       1.44459       1.42724       1.38986        1.3199       1.12778       1.04009      0.964774      0.895132
    0.0657671        1.4887       1.47035       1.43067       1.35597       1.14918       1.06283      0.986502      0.915567
    0.0771781        1.4581       1.43946       1.39933       1.32348       1.10849       1.03062      0.957536      0.888344
     0.088589       1.44494       1.42604       1.38509        1.3065       1.08009       1.01168      0.942372      0.876093
          0.1       1.38329       1.36443        1.3234       1.24382       1.00912      0.953237      0.889358      0.826969
       0.1125       1.45287       1.43203        1.3865       1.29729       1.03193      0.980031      0.914912      0.850502
        0.125       1.50977       1.48692       1.43697       1.33886        1.0439       1.00094      0.936587      0.871472
     0.135714       1.42425       1.40239       1.35435       1.25777      0.956048      0.934635      0.879296      0.820028
     0.144898       1.46332       1.44009       1.38867       1.28444      0.955119      0.943577      0.890177      0.831277
     0.154082        1.4765       1.45182       1.39716        1.2858      0.933917      0.932294      0.881726      0.824164
     0.163265       1.46493       1.43878       1.38096        1.2628      0.888369      0.898787      0.852434      0.797501
     0.170612       1.34263       1.31733       1.26125       1.14566      0.769488      0.803499      0.768695      0.722118
     0.177959       1.34338       1.31723       1.25876       1.13694      0.742369      0.784588      0.752897      0.707964
     0.185306       1.45397       1.42466       1.35948        1.2247      0.793753      0.836517      0.801699      0.753099
     0.192653       1.57022       1.53719       1.46395       1.31375      0.842764      0.887813      0.850686      0.799075
          0.2       1.42111       1.38827       1.31543       1.16593      0.696002      0.765578      0.741367      0.700531
     0.206667       1.37365       1.34016        1.2658       1.11218      0.625597      0.711195      0.693617       0.65706
     0.212889       1.48004       1.44243        1.3594       1.18955       0.66134      0.749797      0.729817      0.690215
     0.219111       1.52762       1.48671       1.39661       1.21405      0.656761      0.753081      0.735435       0.69661
     0.224889       1.37886       1.33952       1.25279       1.07549      0.525835      0.647677      0.643399      0.613528
     0.230667       1.60449       1.55847       1.45726       1.25281      0.638143      0.751074      0.738221      0.700079
     0.236444       1.83793       1.78418       1.66711       1.43506      0.757509      0.865757      0.845958      0.800466
     0.241741       1.66008       1.60764       1.49368       1.26779        0.6013      0.741956      0.739302      0.706251
     0.247037       1.69895       1.64234       1.51935       1.27648      0.571536      0.720413      0.721235      0.689661
     0.252333       1.90344       1.83865       1.69883       1.42647      0.656348      0.802786      0.798806      0.761497
       0.2571       2.05342       1.98141        1.8271       1.53037      0.704298      0.858243      0.853641      0.813749
     0.261867       1.92308       1.85052       1.69566       1.39911      0.574958      0.757135      0.768083      0.739089
     0.266633        2.0435       1.96414       1.79494       1.47288      0.593437      0.781069      0.792766      0.762233
       0.2714       2.33565       2.24351       2.04867       1.68377      0.715348      0.897586      0.902266       0.86446
     0.275486        2.4639       2.36381       2.15358       1.76407      0.739917      0.938502      0.945917      0.907975
     0.279571        2.4185       2.31203       2.08967       1.68229      0.629438      0.850842      0.870738      0.841824
     0.283657       2.12097       2.01725       1.80158        1.4078      0.387348      0.653992      0.700433      0.690654
     0.287743       2.45703       2.33871       2.09309       1.64802      0.523332      0.779968      0.817486       0.79809
     0.291829       2.71345       2.57998       2.30543       1.81631       0.61099      0.871062      0.906797      0.883887
     0.295914       3.02575       2.87345       2.56271       2.01831      0.712023      0.974361       1.00702      0.979421
          0.3       2.84134       2.68485       2.36857       1.82172      0.521879      0.831171       0.88879      0.878049
     0.303448       2.49522       2.34484       2.04185       1.51815      0.258072      0.629266      0.718353      0.728048
     0.306778       2.76862       2.60202       2.26679       1.69148      0.336505      0.703628      0.789413      0.794681
     0.310107       2.97043       2.78646       2.41954       1.80003      0.376127      0.748747      0.837096      0.842592
     0.313317       3.21467       3.01084       2.60757       1.93687      0.429575      0.808089      0.897753       0.90211
     0.316413       3.38249       3.15968       2.72256        2.0065      0.430367      0.823127      0.919652       0.92727
     0.319399       3.22823       2.99885       2.55272       1.83113      0.255731      0.685204      0.802057      0.822225
     0.322384       3.05926       2.82341       2.36856         1.642     0.0760601      0.542118      0.682915      0.718389
     0.325258       3.39317       3.13256       2.63225       1.84066       0.16858      0.628618      0.767054       0.79764
     0.328027       3.44844       3.17011        2.6409       1.81676       0.10812      0.587629      0.740313      0.779042
     0.330795       3.49892        3.2046       2.64994       1.79837     0.0634347      0.559691      0.728726      0.776061
     0.333457        3.6769       3.36093       2.76966       1.87289     0.0765175       0.58256      0.760571      0.810721
     0.336016       3.93931       3.59518       2.95559        1.9979      0.111389      0.630919        0.8108      0.858594
     0.338575       4.15617       3.78113       3.09054       2.07206      0.104355      0.629421      0.815657      0.862911
     0.341032       4.21573       3.81783       3.09267       2.03952     0.0394291      0.573791      0.779362      0.834555
     0.343391       4.22368       3.80826       3.05858       1.98447    -0.0309153      0.544589      0.765621      0.830649
      0.34575       4.42234       3.97581       3.17612       2.04447      -0.04351      0.547704      0.775887      0.843782
      0.34801       4.63242       4.15126       3.29652       2.10277    -0.0676821      0.559272      0.789841      0.858922
     0.350271       4.75929       4.24055       3.32892       2.07781     -0.148277      0.495308      0.740807      0.819967
     0.352433       4.91716       4.36209       3.39541       2.08766     -0.196808       0.46964      0.721197      0.810254
     0.354595       4.95725       4.37027       3.36047        2.0175     -0.288514      0.406104      0.674696      0.775225
     0.356659        5.1334       4.51114       3.44943       2.05418      -0.30861      0.405142      0.683479      0.789321
     0.358629       5.30289       4.64308       3.52726       2.07918     -0.339486      0.391327      0.679717      0.790957
     0.360599       5.45659       4.75552       3.58244       2.08249     -0.380278      0.368115      0.670088      0.789636
     0.362475       5.71522       4.96586       3.72212       2.15119     -0.385401      0.375737       0.68443      0.807801
     0.364351       5.97259       5.16701       3.84438       2.19945     -0.404062       0.36924      0.688847      0.819615
     0.366134       6.21493       5.36023       3.96912        2.2598     -0.404549      0.385575      0.712115      0.848154
     0.367916       6.51833       5.60243       4.12471       2.33146     -0.415475      0.383943      0.712747       0.85702
     0.369605       6.60462         5.648       4.12032       2.29061     -0.476408      0.347018      0.699975       0.84849
     0.371293       6.88638       5.86479       4.25019       2.34125     -0.500866      0.328822       0.69657      0.848613
     0.372982       7.15287       6.05868       4.35147       2.36461     -0.537715      0.305295       0.68514      0.843705
     0.374571       7.31664       6.16658       4.39067       2.35047     -0.584312      0.283387      0.677792      0.844162
     0.376161       7.66452       6.43194       4.54774       2.41154     -0.606981      0.269586      0.677604      0.851366
     0.377651       7.84996       6.56278       4.60761       2.41127     -0.645338      0.254055      0.674599      0.855242
     0.379141        8.2165       6.83289       4.75183       2.44519     -0.701678      0.208131      0.645059      0.835241
     0.380631       8.39216       6.90793       4.70821       2.31703     -0.848278      0.095951      0.557403      0.764894
     0.382014       8.75465       7.18782       4.88981       2.41767     -0.819064      0.135201      0.600569      0.808196
     0.383398       9.05178        7.3911       4.98973       2.44468     -0.865097     0.0999371      0.584031      0.800987
     0.384781       9.19748       7.44902        4.9595       2.36425      -0.96236     0.0317238      0.536789      0.766534
     0.386049       9.11954       7.34501       4.83731       2.24834      -1.04154   -0.00496805      0.521567      0.763288
     0.387318       9.51969       7.63694       4.99897       2.30198      -1.07302    -0.0294028      0.510038      0.759001
     0.388586       10.0677       8.03978        5.2272       2.38888      -1.08591    -0.0382077      0.514741      0.771852
     0.389854       10.6174       8.43179        5.4399       2.46665      -1.11188    -0.0422806       0.52132      0.784799
     0.391122       11.0558       8.72073       5.57242       2.49274      -1.16435    -0.0648985      0.511469       0.78217
     0.392232       11.1051       8.70045        5.4927       2.38913      -1.27547     -0.118422      0.475919      0.754789
     0.393342       11.4142       8.90247       5.58024       2.39066      -1.35756      -0.17966      0.430171      0.717806
     0.394451       11.3608       8.77327       5.40628       2.22881      -1.53042      -0.30702      0.342007      0.650792
     0.395561       11.4976       8.81264       5.36849       2.15837      -1.61779     -0.352619      0.304542      0.623611
     0.396671       11.8933       9.07558       5.50167       2.20075      -1.64947     -0.357005      0.299663      0.626044
     0.397781        12.326       9.34575       5.62182       2.22541      -1.69898     -0.369356      0.308634       0.63735
      0.39889       12.7761       9.63422        5.7607       2.26532      -1.73401      -0.37559      0.313497      0.650261
          0.4       13.1667       9.84205       5.81802       2.23498      -1.82393     -0.426477      0.278903      0.625157
        0.401       13.1376       9.76933       5.73021        2.1522      -1.90676     -0.453009      0.270871      0.617492
      0.40198       13.5709       10.0256       5.84651       2.18386      -1.94243      -0.48814      0.238147      0.605131
     0.402951       14.0439       10.2943       5.95954       2.20918       -1.9735     -0.521376      0.215022      0.592484
     0.403902       14.2465       10.3395       5.90117       2.10194      -2.11316     -0.634004      0.114965      0.499532
     0.404835       14.6297       10.5294       5.96232       2.09441       -2.1752     -0.673938     0.0852857      0.476434
      0.40575       15.0157       10.7072       6.01954       2.09801      -2.20909     -0.681386     0.0879754      0.484671
     0.406648       15.4898        10.978       6.15588       2.14274      -2.24043      -0.69791     0.0841373      0.489749
     0.407528       15.4001       10.7242       5.87989       1.91988      -2.38368     -0.791279     0.0193985      0.444113
     0.408393       15.9082       10.9931       6.00998       1.96619      -2.40516     -0.798176     0.0226434      0.453804
     0.409241       16.5061       11.3338       6.18303       2.02493      -2.43043     -0.808334     0.0222134      0.460628
     0.410081       17.3418       11.7833       6.40212       2.10392      -2.44965      -0.81445     0.0221982      0.465423
     0.410906        18.103       12.1559       6.57134       2.15284      -2.48727     -0.819912     0.0181444       0.46119
     0.411716        18.841        12.506       6.72571        2.1938      -2.52543     -0.846294  -0.000988521      0.440799
     0.412512         19.46       12.7613       6.82742       2.21279      -2.56447      -0.90362    -0.0498744      0.400682
     0.413293       19.8829       12.8939       6.87226       2.20436       -2.6156      -0.94069    -0.0754923      0.377098
     0.414067       20.7301       13.2715        7.0634        2.2685      -2.63924     -0.959217    -0.0881315      0.375871
     0.414827       21.5924       13.5649       7.18955       2.30818      -2.66238     -0.972354    -0.0924556      0.380186
     0.415581       22.5157       13.8691       7.32163       2.35585      -2.67928      -0.98421    -0.0967698       0.38204
     0.416322       23.4814       14.1918       7.45657       2.40475      -2.69661     -0.993936    -0.0981231       0.38661
     0.417056       24.5107       14.5358       7.61643       2.46701      -2.71245      -1.00796     -0.106693      0.381569
     0.417783        25.491       14.8298       7.76438        2.5215       -2.7323      -1.02277     -0.113453      0.380326
     0.418504       27.1599       15.4532        8.1142       2.68039      -2.72032      -1.01832     -0.106581      0.389682
     0.419226       29.6741       16.1527       8.46137       2.82313      -2.71668      -1.02066     -0.104076      0.395347
      0.41994        31.613       16.5394       8.70365       2.92229      -2.72893      -1.03011     -0.112346      0.386317
     0.420662       34.5139       17.2624       9.06719       3.06713       -2.7307      -1.04415     -0.131147      0.362416
      0.42139       37.4138       17.9725       9.46537       3.22206      -2.73941      -1.06597     -0.157771      0.327509
     0.422131       40.4861        18.587       9.81142       3.33647      -2.75942      -1.08887     -0.179278      0.312006
     0.422895       45.7808        19.434       10.2942       3.53852      -2.74282       -1.0911     -0.188159      0.299706
     0.423643       52.3713       19.7573       10.4863       3.56842      -2.82279      -1.14339     -0.226414       0.26875
     0.424384       59.5521       19.9756       10.6987          3.63      -2.87418       -1.1794     -0.248279      0.257747
     0.425119       68.1813         20.14       10.9971        3.7518      -2.89698       -1.1985     -0.263334      0.251907
     0.425846       79.8865        20.324       11.4144       3.89598      -2.92028      -1.21475     -0.273615      0.246492
     0.426566       94.3165       19.8162       11.7401       3.97978      -2.97621      -1.25202     -0.299729      0.227731
     0.427286       124.126       19.3823       12.3788       4.18546      -2.97932      -1.25038     -0.296133      0.229883
     0.427998       166.935       18.3562       12.9011       4.31571      -3.05025      -1.29632      -0.32908      0.204372
     0.428697       221.514       16.8841       13.3562       4.44825      -3.12622      -1.33693     -0.354712      0.191295
      0.42939       302.242       16.0753       14.2442       4.85955      -3.09201      -1.32851     -0.363325      0.171645
     0.430069       411.472       15.2664       14.6338        5.1472      -3.12344      -1.35388      -0.38977      0.146929
     0.430728       562.501       15.3306        14.727       5.38683      -3.16423      -1.37006      -0.40025      0.138014
     0.431376       797.199       16.0617         14.78       5.68079      -3.17802      -1.37039     -0.399401      0.136415
     0.432011       1137.72       16.9966       14.3949       5.79636      -3.27552      -1.42497       -0.4317      0.117468
     0.432641       1564.81       18.1947       13.9196       6.01338      -3.36164      -1.47146      -0.45818      0.100792
     0.433264       2070.84       19.4133         12.98       6.11997      -3.47024      -1.52454      -0.48862     0.0802703
     0.433882       2658.01       21.0946       11.8346       6.16444      -3.57929       -1.5699     -0.513611      0.064765
       0.4345       3307.29        24.137        10.656       6.26939      -3.67816      -1.61013     -0.533791     0.0542101
     0.435112       3996.52       26.9076       9.44948       6.21287      -3.84651      -1.68423     -0.574177     0.0350533
     0.435719       4731.58       31.7668       8.48523       6.08723      -4.00861       -1.7558     -0.614518     0.0118238
      0.43632       5546.22       40.4814       7.91662        5.7923      -4.19831      -1.85241     -0.675585    -0.0290779
      0.43692       6361.28       51.0366       7.41266        5.2813      -4.42425      -1.96263     -0.740188    -0.0669383
     0.437521       7305.52       63.8142        7.1917       4.51006      -4.70513      -2.11528     -0.836728     -0.127022
     0.438116       8172.54       75.5641       7.79611        3.7414      -4.94896      -2.28193      -0.95019     -0.206012
     0.438706       8804.56       89.9333       8.85246       2.98806      -5.22168      -2.43849      -1.04623     -0.263655
     0.439289       9205.33        104.77       9.99405       2.15787      -5.48812       -2.5943      -1.14676     -0.330903
     0.439862        9520.8       118.336       11.8646       1.62639      -5.65011      -2.69546      -1.20817     -0.364627
     0.440429       9920.44       261.504       9.00933     0.0709248      -6.16033      -3.00404      -1.40574     -0.494895
     0.440991       10135.7       386.984        10.612    -0.0421545      -6.37311      -3.17239      -1.51892     -0.569702
     0.441553       10311.3        522.22       13.9661      0.564714      -6.41712      -3.24568      -1.57085     -0.604512
      0.44211       10489.2       677.409       16.6395       1.15529      -6.49229      -3.33092      -1.63466     -0.644132
     0.442667       10632.3        839.49       18.7282        1.7122      -6.56967      -3.41957       -1.6967     -0.680187
     0.443223       10767.2       1006.55       20.6658       2.38874       -6.6326      -3.49785      -1.75021     -0.710037
      0.44378       10952.8       1349.81       13.9835       1.64123      -7.07148      -3.79097      -1.94783     -0.848271
     0.444336       10985.5       1514.64       22.4888       5.23354      -6.41518       -3.4792      -1.76384     -0.723431
     0.444888       11067.5       1703.85       27.2107       7.70053       -6.0199      -3.28641      -1.64967     -0.636783
     0.445439       11173.1        1891.4       29.5489       9.04846      -5.90682      -3.25021       -1.6405      -0.62781
      0.44599       11268.2       2154.27       31.0987         10.11       -5.8755      -3.27829      -1.67636     -0.652281
     0.446541       11397.3       2487.74       33.1764         9.596      -6.25915      -3.53196      -1.86047     -0.783608
     0.447098       11486.1        2856.2       38.8958       10.2463      -6.55805      -3.77176      -2.04554     -0.917456
     0.447655       11565.4       3215.46       53.5511       12.1777      -6.58819      -3.82758      -2.10365      -0.96538
     0.448218       11629.2       3549.33       75.7443       13.1294      -6.61947      -3.91495      -2.19243      -1.03908
      0.44878       11727.2       3868.47       107.594       14.8184      -6.46027      -3.90436      -2.22372      -1.07528
      0.44935       11726.2       4124.01       151.261       15.8446      -6.32144      -3.91491      -2.27139      -1.11991
     0.449925       11699.3       4363.15       215.052       15.7924      -6.33663      -4.00755      -2.37665      -1.20834
     0.450514       11652.6       4630.95        276.53        17.641      -5.89582       -3.8389      -2.31514      -1.18526
      0.45111       11631.3       4942.24       356.091       18.7584      -5.62184      -3.76363      -2.31637       -1.2066
     0.451722       11548.4       5272.13       455.178       20.2174      -5.27561      -3.64291      -2.29113       -1.2093
     0.452349       11439.9       5566.89       570.914       20.2859      -4.88917      -3.49473      -2.25488      -1.20893
     0.452992       11298.3       5693.18       684.464       19.6206       -4.1695      -3.18524       -2.1167      -1.14034
     0.453655       11153.1       5869.89        800.96       18.9701      -3.78804      -2.97519      -2.01294      -1.08848
     0.454336       10955.4       5961.89       938.342       18.2644      -3.59164      -2.86229      -1.97321      -1.07788
     0.455028       10780.6       6071.54        1086.6       18.9795      -3.43695      -2.79563      -1.97412      -1.10689
     0.455731       10598.7       6172.66       1228.31        35.688      -2.96683      -2.56927      -1.89427       -1.0915
     0.456433       10425.1       6271.79       1323.23       72.8172      -2.29517      -2.06011      -1.60885     -0.933271
     0.457136       10244.9       6333.61       1367.19       131.027      -1.98849       -1.6984      -1.41668     -0.836923
      0.45785       10058.5       6361.34       1444.46       217.547      -2.88531      -1.65749      -1.35241     -0.801416
     0.458565       9870.01       6351.65       1522.49       331.398      -2.89267      -1.51909      -1.25291      -0.75259
     0.459292       9704.66       6358.75        1619.9       478.827      -3.82169      -1.56965      -1.25185     -0.759972
     0.460019       9550.58       6358.98        1701.2       639.712      -5.32428      -1.91422      -1.39554     -0.856273
     0.460759       9394.36       6344.84       1772.85       806.966       -7.2003      -2.47825      -1.65143      -1.01506
     0.461514       9243.59       6323.72       1827.83         939.5      -7.37782      -2.34848      -1.48577     -0.913452
     0.462283       9101.12       6295.45       1880.53        1056.9      -8.29052      -2.50212      -1.46582     -0.895031
     0.463053       8980.99       6287.65       1945.93       1148.73      -10.2718      -3.19662      -1.73472      -1.04656
     0.463839       8870.78       6280.87       2025.72       1209.95      -9.72042      -3.49141      -1.84875      -1.12362
     0.464643       8768.63       6270.88       2109.02       1247.02      -5.64633      -3.33312      -1.68843       -1.0239
     0.465465       8675.48       6259.91       2189.02       1266.57       1.26586      -3.60532      -1.71795      -1.02755
     0.466307       8587.25       6247.22       2260.32       1272.39       12.6217      -4.06451      -1.87146      -1.10715
     0.467171        8503.1       6228.92       2314.67       1269.36       30.3366      -4.14875      -1.91042      -1.12395
     0.468035       8432.12       6212.76       2362.21       1266.78       53.3008      -3.52053      -1.71935      -1.04184
     0.468923       8361.94       6194.14       2402.34       1277.99       72.4419       -4.4498      -2.12407      -1.25127
     0.469837       8299.03        6180.2       2446.95       1297.15       90.8762       -6.2617       -2.8284      -1.61572
      0.47078       8241.71       6171.14       2495.14       1320.95       113.964      -4.86444      -2.37462      -1.44135
     0.471722       8198.98       6177.24          2562       1345.36       126.996       -4.8707      -2.41823      -1.49565
     0.472697       8155.62       6182.59       2623.82       1370.33       130.097      -6.06738      -2.92885      -1.78013
     0.473709        8112.9        6184.7       2682.41       1394.09       130.405      -6.44646      -3.08256      -1.88774
      0.47472       8074.68       6185.01       2735.62       1429.39       127.454      -6.13491      -2.97054      -1.88062
     0.475773       8036.19       6183.09       2778.51       1467.83       119.263      -6.60213      -3.25911      -2.07743
     0.476827        8000.2       6180.97       2819.65       1504.35       109.611      -7.21025      -3.56161      -2.27101
      0.47788       7972.62       6186.28       2863.35       1537.45       102.613      -7.87508      -3.91069      -2.50161
     0.478933       7950.04       6190.45       2909.76       1570.62         98.85      -8.47207      -4.33226      -2.79349
     0.479987       7937.42       6206.06        2968.8       1604.91       97.6981      -8.53209      -4.54102      -2.98123
      0.48104       7932.31       6228.33       3031.31       1637.76       98.1142      -8.30042      -4.61411      -3.10396
     0.482093       7932.47       6253.45       3091.89       1671.46       100.494      -8.12198      -4.70403      -3.22705
     0.483088       7939.75       6281.38       3147.26       1703.79        104.65       -7.5567      -4.53228      -3.19541
     0.484083        7946.9       6307.86       3192.39       1728.31       108.971      -7.28307       -4.5196      -3.24815
     0.485078       7955.08       6333.31       3231.92       1743.78       112.938       -7.1471      -4.61141      -3.36494
      0.48601       7967.52       6359.24       3269.29       1757.26        116.97      -6.93312      -4.65863      -3.46203
     0.486943       7981.33        6388.2        3309.8       1777.97       119.957        -6.873      -4.80381      -3.63351
     0.487876       7996.56       6418.96       3353.67       1802.35       122.842      -6.49945      -4.70583      -3.64919
     0.488742       8012.82       6448.49       3395.89        1823.6       125.087      -6.27166      -4.60892       -3.6367
     0.489608       8031.12       6482.76       3438.26       1833.24       127.852      -6.23605      -4.69404      -3.75689
     0.490474       8049.78       6519.12        3483.1       1843.98       130.285      -6.46089      -4.98456      -4.01061
      0.49134       8076.19       6565.28       3535.49       1857.56       132.886      -6.32017      -4.99435      -4.08202
     0.492206       8106.88       6616.57        3591.4       1871.99       135.073      -6.22888       -5.0431      -4.18042
     0.493072       8140.77       6671.53       3648.94       1887.74       137.284      -5.79417      -4.81427      -4.09711
     0.493938       8180.59       6732.82       3711.14        1911.6       138.902       -5.5609      -4.70163      -4.07776
     0.494804       8221.58       6795.61       3775.21       1939.05       139.858      -5.75115      -4.90335        -4.273
      0.49567       8261.08       6857.42       3840.19       1968.64        140.51      -6.17084      -5.31394      -4.61018
     0.496536       8298.15       6917.36       3905.36       1996.96        141.59      -6.08441      -5.33454      -4.70643
     0.497402       8330.83       6973.36       3968.72       2021.84       142.454      -6.15507      -5.47336      -4.88354
     0.498268       8357.94       7024.01       4028.52       2044.18       143.173      -6.30645      -5.66667      -5.08772
     0.499134       8381.59          7072       4086.53       2064.35       143.558      -6.63433      -5.96523      -5.34915
          0.5       8399.37       7114.69       4142.38       2085.34       144.278      -6.54824      -5.91878      -5.36698
     0.500877       8415.48       7159.05       4207.34       2113.03       145.322      -6.11843      -5.62067      -5.21169
     0.501747       8429.59       7203.15       4278.05       2144.99        145.88      -6.04802      -5.61634      -5.27056
     0.502624       8441.01       7245.66       4349.42       2177.65       146.633      -5.84021      -5.52494      -5.29511
     0.503486       8452.46       7287.94        4420.4       2209.38       147.005      -5.94681      -5.65703      -5.45366
     0.504347       8463.16        7329.6        4490.3       2237.99       147.711      -5.83267      -5.60297      -5.47488