# Solver information
# Time        	U_solver      	Ux_initial    	Ux_final      	Ux_iters      	Uy_initial    	Uy_final      	Uy_iters      	U_converged   	k_solver      	k_initial     	k_final       	k_iters       	k_converged   	p_solver      	p_initial     	p_final       	p_iters       	p_converged   	epsilon_solver	epsilon_initial	epsilon_final 	epsilon_iters 	epsilon_converged
1             	DILUPBiCGStab	1.000000e+00	8.464750e-10	3	0.000000e+00	0.000000e+00	0	false	DILUPBiCGStab	1.000000e+00	2.105060e-11	3	true	GAMG	1.000000e+00	8.610070e-03	5	true	DILUPBiCGStab	9.432730e-01	6.375050e-13	3	true
2             	DILUPBiCGStab	2.527850e-01	3.875640e-10	5	1.507500e-01	8.569530e-10	5	false	DILUPBiCGStab	7.985850e-01	1.362260e-10	3	true	GAMG	5.228100e-02	1.328990e-04	4	true	DILUPBiCGStab	8.527680e-01	4.958390e-11	3	true
3             	DILUPBiCGStab	6.778010e-02	4.560430e-09	4	7.951660e-02	9.811100e-10	5	false	DILUPBiCGStab	6.454110e-01	4.952690e-09	3	true	GAMG	1.459870e-01	4.825280e-04	3	true	DILUPBiCGStab	7.194000e-01	1.092270e-09	3	true
4             	DILUPBiCGStab	4.628170e-02	3.736460e-09	4	6.787380e-02	1.052080e-09	5	false	DILUPBiCGStab	4.985630e-01	3.442940e-09	3	true	GAMG	2.377230e-01	1.135300e-03	3	true	DILUPBiCGStab	5.725740e-01	2.412980e-09	3	true
5             	DILUPBiCGStab	4.552610e-02	7.173910e-09	4	6.169540e-02	8.364470e-10	5	false	DILUPBiCGStab	4.199910e-01	5.611610e-09	3	true	GAMG	2.670230e-01	1.520820e-03	3	true	DILUPBiCGStab	4.597720e-01	4.224390e-09	3	true
6             	DILUPBiCGStab	4.282980e-02	3.696640e-09	4	5.994900e-02	1.624550e-09	5	false	DILUPBiCGStab	3.658220e-01	6.081490e-09	3	true	GAMG	1.960570e-01	1.242880e-03	3	true	DILUPBiCGStab	3.938330e-01	3.776300e-09	3	true
7             	DILUPBiCGStab	4.064360e-02	4.234590e-09	4	6.180290e-02	2.039540e-09	5	false	DILUPBiCGStab	3.174050e-01	8.778550e-09	3	true	GAMG	1.595750e-01	9.847550e-04	3	true	DILUPBiCGStab	3.357900e-01	2.486000e-09	3	true
8             	DILUPBiCGStab	3.708270e-02	3.550180e-09	4	6.020900e-02	1.654600e-09	5	false	DILUPBiCGStab	2.772600e-01	4.457820e-09	3	true	GAMG	1.470590e-01	3.184010e-04	3	true	DILUPBiCGStab	2.826860e-01	2.883540e-09	3	true
9             	DILUPBiCGStab	3.246660e-02	2.371210e-09	4	5.240940e-02	7.457830e-10	5	false	DILUPBiCGStab	2.316930e-01	4.613610e-09	3	true	GAMG	1.349500e-01	1.304340e-03	2	true	DILUPBiCGStab	2.276510e-01	1.887300e-09	3	true
10            	DILUPBiCGStab	2.938970e-02	2.943470e-09	4	4.895920e-02	1.380260e-09	5	false	DILUPBiCGStab	1.942430e-01	2.372500e-09	3	true	GAMG	1.245720e-01	3.121980e-04	3	true	DILUPBiCGStab	1.821820e-01	7.185730e-10	3	true
11            	DILUPBiCGStab	2.723380e-02	3.668880e-09	4	4.559950e-02	8.937290e-10	5	false	DILUPBiCGStab	1.694250e-01	1.830110e-09	3	true	GAMG	1.131610e-01	1.054450e-03	2	true	DILUPBiCGStab	1.483650e-01	2.243340e-09	3	true
12            	DILUPBiCGStab	2.478700e-02	9.926430e-10	4	4.341900e-02	8.210030e-10	5	false	DILUPBiCGStab	1.390650e-01	6.406260e-10	3	true	GAMG	9.740480e-02	2.651480e-04	3	true	DILUPBiCGStab	1.195030e-01	5.284540e-10	3	true
13            	DILUPBiCGStab	2.300680e-02	1.135380e-09	4	3.915280e-02	1.771020e-11	6	false	DILUPBiCGStab	1.145950e-01	3.063670e-10	3	true	GAMG	9.184400e-02	8.932110e-04	2	true	DILUPBiCGStab	9.699140e-02	6.923780e-09	3	true
14            	DILUPBiCGStab	2.097950e-02	8.079340e-09	4	3.760770e-02	8.549890e-09	4	false	DILUPBiCGStab	9.684710e-02	4.625680e-10	3	true	GAMG	7.490250e-02	2.452690e-04	3	true	DILUPBiCGStab	7.766220e-02	2.419350e-10	3	true
15            	DILUPBiCGStab	1.933320e-02	1.868530e-10	5	3.394590e-02	7.555380e-09	4	false	DILUPBiCGStab	8.108470e-02	9.630880e-11	3	true	GAMG	7.014610e-02	6.823220e-04	2	true	DILUPBiCGStab	6.480090e-02	1.917120e-09	3	true
16            	DILUPBiCGStab	1.784510e-02	1.019330e-09	4	3.209780e-02	2.904530e-09	4	false	DILUPBiCGStab	7.012530e-02	1.413690e-10	3	true	GAMG	5.607800e-02	1.975170e-04	3	true	DILUPBiCGStab	5.303770e-02	3.148620e-09	3	true
17            	DILUPBiCGStab	1.657310e-02	7.288770e-09	4	2.961120e-02	2.451950e-09	4	false	DILUPBiCGStab	6.026630e-02	1.010720e-10	3	true	GAMG	5.355510e-02	8.957860e-05	3	true	DILUPBiCGStab	4.364480e-02	1.763030e-10	3	true
18            	DILUPBiCGStab	1.562720e-02	7.004130e-09	4	2.825670e-02	2.178740e-09	4	false	DILUPBiCGStab	5.263150e-02	1.759460e-10	3	true	GAMG	4.565990e-02	1.194160e-04	3	true	DILUPBiCGStab	3.626330e-02	1.131510e-09	3	true
19            	DILUPBiCGStab	1.481200e-02	1.157260e-09	4	2.661070e-02	2.117140e-09	4	false	DILUPBiCGStab	4.683530e-02	3.237240e-10	3	true	GAMG	4.177030e-02	9.840540e-05	3	true	DILUPBiCGStab	3.110190e-02	1.064520e-09	3	true
20            	DILUPBiCGStab	1.399690e-02	7.969300e-09	4	2.560560e-02	1.738740e-09	4	false	DILUPBiCGStab	4.182470e-02	8.764580e-11	3	true	GAMG	3.793520e-02	8.249830e-05	3	true	DILUPBiCGStab	2.664030e-02	1.711130e-10	3	true
21            	DILUPBiCGStab	1.347010e-02	8.153820e-09	4	2.466450e-02	1.774790e-09	4	false	DILUPBiCGStab	3.840710e-02	1.793840e-10	3	true	GAMG	3.463040e-02	8.488770e-05	3	true	DILUPBiCGStab	2.367960e-02	2.228490e-10	3	true
22            	DILUPBiCGStab	1.301250e-02	6.265870e-09	4	2.409900e-02	1.698990e-09	4	false	DILUPBiCGStab	3.491480e-02	1.726340e-09	3	true	GAMG	3.354030e-02	7.030510e-05	3	true	DILUPBiCGStab	2.126770e-02	6.767460e-09	3	true
23            	DILUPBiCGStab	1.257300e-02	4.425740e-09	4	2.335900e-02	1.277470e-09	4	false	DILUPBiCGStab	3.198170e-02	1.113010e-10	3	true	GAMG	3.197580e-02	6.863960e-05	3	true	DILUPBiCGStab	1.899850e-02	9.642800e-11	3	true
24            	DILUPBiCGStab	1.215180e-02	5.914720e-09	4	2.297410e-02	9.968760e-09	4	false	DILUPBiCGStab	2.958330e-02	1.279140e-10	3	true	GAMG	2.987140e-02	6.547670e-05	3	true	DILUPBiCGStab	1.719380e-02	4.550070e-11	3	true
25            	DILUPBiCGStab	1.172930e-02	6.959550e-09	4	2.257320e-02	8.282400e-09	4	false	DILUPBiCGStab	2.822810e-02	3.299770e-10	3	true	GAMG	2.773150e-02	5.616520e-05	3	true	DILUPBiCGStab	1.589610e-02	1.248500e-10	3	true
26            	DILUPBiCGStab	1.143290e-02	5.113890e-09	4	2.207940e-02	7.184370e-09	4	false	DILUPBiCGStab	2.665150e-02	3.548060e-10	3	true	GAMG	2.610760e-02	6.056370e-05	3	true	DILUPBiCGStab	1.484460e-02	7.625560e-11	3	true
27            	DILUPBiCGStab	1.111060e-02	4.267870e-09	4	2.176650e-02	6.951840e-09	4	false	DILUPBiCGStab	2.507410e-02	6.344980e-10	3	true	GAMG	2.572950e-02	5.481390e-05	3	true	DILUPBiCGStab	1.415440e-02	6.621730e-11	3	true
28            	DILUPBiCGStab	1.088690e-02	2.673460e-09	4	2.151690e-02	2.503550e-09	4	false	DILUPBiCGStab	2.418880e-02	1.556270e-10	3	true	GAMG	2.593920e-02	5.403130e-05	3	true	DILUPBiCGStab	1.309970e-02	6.167580e-11	3	true
29            	DILUPBiCGStab	1.065020e-02	2.772000e-09	4	2.128380e-02	1.857930e-09	4	false	DILUPBiCGStab	2.289930e-02	2.674790e-10	3	true	GAMG	2.507490e-02	5.295260e-05	3	true	DILUPBiCGStab	1.270010e-02	8.417570e-11	3	true
30            	DILUPBiCGStab	1.045250e-02	2.291190e-09	4	2.112190e-02	9.289160e-09	4	false	DILUPBiCGStab	2.186840e-02	1.810700e-10	3	true	GAMG	2.452320e-02	4.900300e-05	3	true	DILUPBiCGStab	1.199030e-02	4.845250e-11	3	true
31            	DILUPBiCGStab	1.025890e-02	1.786680e-09	4	2.087300e-02	8.838350e-09	4	false	DILUPBiCGStab	2.086800e-02	1.263580e-09	3	true	GAMG	2.354830e-02	4.595190e-05	3	true	DILUPBiCGStab	1.169030e-02	7.527020e-11	3	true
32            	DILUPBiCGStab	1.008650e-02	5.018200e-09	4	2.084370e-02	5.588260e-09	4	false	DILUPBiCGStab	2.024950e-02	1.254200e-10	3	true	GAMG	2.260840e-02	4.095410e-05	3	true	DILUPBiCGStab	1.118090e-02	1.016580e-10	3	true
33            	DILUPBiCGStab	9.938290e-03	3.046150e-09	4	2.068650e-02	6.598780e-09	4	false	DILUPBiCGStab	1.919880e-02	1.744960e-10	3	true	GAMG	2.153790e-02	3.802480e-05	3	true	DILUPBiCGStab	1.072290e-02	9.148020e-11	3	true
34            	DILUPBiCGStab	9.784480e-03	2.631510e-09	4	2.067870e-02	7.093800e-09	4	false	DILUPBiCGStab	1.878200e-02	9.945590e-11	3	true	GAMG	2.113560e-02	3.629160e-05	3	true	DILUPBiCGStab	1.033830e-02	1.037610e-10	3	true
35            	DILUPBiCGStab	9.666290e-03	2.526360e-09	4	2.063100e-02	7.023010e-09	4	false	DILUPBiCGStab	1.833240e-02	1.263200e-10	3	true	GAMG	2.053310e-02	3.600740e-05	3	true	DILUPBiCGStab	1.010060e-02	1.144410e-10	3	true
36            	DILUPBiCGStab	9.545800e-03	2.560260e-09	4	2.072820e-02	6.543540e-09	4	false	DILUPBiCGStab	1.791350e-02	1.434990e-10	3	true	GAMG	2.072980e-02	3.527450e-05	3	true	DILUPBiCGStab	9.851940e-03	2.009460e-10	3	true
37            	DILUPBiCGStab	9.422620e-03	3.565460e-09	4	2.069210e-02	6.898260e-09	4	false	DILUPBiCGStab	1.718980e-02	1.396330e-10	3	true	GAMG	2.000710e-02	3.415210e-05	3	true	DILUPBiCGStab	9.741820e-03	3.699910e-10	3	true
38            	DILUPBiCGStab	9.346430e-03	3.075830e-09	4	2.079790e-02	5.633870e-09	4	false	DILUPBiCGStab	1.668590e-02	1.462720e-10	3	true	GAMG	2.016630e-02	3.349230e-05	3	true	DILUPBiCGStab	9.471980e-03	1.320270e-10	3	true
39            	DILUPBiCGStab	9.291330e-03	2.053670e-09	4	2.089030e-02	5.742520e-09	4	false	DILUPBiCGStab	1.625040e-02	1.389940e-10	3	true	GAMG	1.988020e-02	3.339690e-05	3	true	DILUPBiCGStab	9.231730e-03	7.629430e-11	3	true
40            	DILUPBiCGStab	9.222290e-03	1.632600e-09	4	2.102210e-02	6.376790e-09	4	false	DILUPBiCGStab	1.606720e-02	1.532000e-10	3	true	GAMG	1.993640e-02	3.300010e-05	3	true	DILUPBiCGStab	9.020550e-03	5.929390e-11	3	true
41            	DILUPBiCGStab	9.176500e-03	1.429500e-09	4	2.109760e-02	7.583840e-09	4	false	DILUPBiCGStab	1.568550e-02	1.674520e-10	3	true	GAMG	2.044950e-02	3.362700e-05	3	true	DILUPBiCGStab	9.000000e-03	5.101510e-11	3	true
42            	DILUPBiCGStab	9.127140e-03	1.355490e-09	4	2.123490e-02	7.245500e-09	4	false	DILUPBiCGStab	1.531700e-02	1.750800e-10	3	true	GAMG	2.073160e-02	3.315000e-05	3	true	DILUPBiCGStab	8.744100e-03	7.810230e-11	3	true
43            	DILUPBiCGStab	9.099550e-03	1.357530e-09	4	2.133830e-02	8.239120e-09	4	false	DILUPBiCGStab	1.499740e-02	1.943670e-10	3	true	GAMG	2.086080e-02	3.384220e-05	3	true	DILUPBiCGStab	8.589260e-03	5.335850e-11	3	true
44            	DILUPBiCGStab	9.067280e-03	1.654020e-09	4	2.152170e-02	8.710540e-09	4	false	DILUPBiCGStab	1.488930e-02	2.321950e-10	3	true	GAMG	2.038940e-02	3.505390e-05	3	true	DILUPBiCGStab	8.429080e-03	8.358070e-11	3	true
45            	DILUPBiCGStab	9.050900e-03	2.174710e-09	4	2.170600e-02	9.060580e-09	4	false	DILUPBiCGStab	1.448810e-02	2.940550e-10	3	true	GAMG	2.051180e-02	3.795790e-05	3	true	DILUPBiCGStab	8.425960e-03	1.983600e-10	3	true
46            	DILUPBiCGStab	9.022760e-03	1.384500e-09	4	2.193530e-02	9.930280e-09	4	false	DILUPBiCGStab	1.431450e-02	2.099310e-10	3	true	GAMG	2.068210e-02	4.175680e-05	3	true	DILUPBiCGStab	8.302340e-03	8.894470e-11	3	true
47            	DILUPBiCGStab	9.034840e-03	1.185570e-09	4	2.225240e-02	8.413150e-09	4	false	DILUPBiCGStab	1.385560e-02	2.170490e-10	3	true	GAMG	2.108010e-02	4.435130e-05	3	true	DILUPBiCGStab	8.271960e-03	2.504650e-09	3	true
48            	DILUPBiCGStab	9.047030e-03	9.778540e-09	3	2.253780e-02	9.266060e-09	4	false	DILUPBiCGStab	1.380850e-02	2.066100e-10	3	true	GAMG	2.123970e-02	4.571420e-05	3	true	DILUPBiCGStab	8.272370e-03	4.624980e-10	3	true
49            	DILUPBiCGStab	9.042760e-03	9.883030e-09	3	2.288600e-02	8.058030e-09	4	false	DILUPBiCGStab	1.357600e-02	2.280900e-10	3	true	GAMG	2.099880e-02	4.728230e-05	3	true	DILUPBiCGStab	8.257830e-03	2.220390e-10	3	true
50            	DILUPBiCGStab	9.059900e-03	9.806470e-09	3	2.323180e-02	9.531370e-09	4	false	DILUPBiCGStab	1.347610e-02	2.530260e-10	3	true	GAMG	2.105900e-02	4.658390e-05	3	true	DILUPBiCGStab	8.220230e-03	1.257190e-09	3	true
51            	DILUPBiCGStab	9.068320e-03	9.356890e-09	3	2.361270e-02	9.761370e-09	4	false	DILUPBiCGStab	1.330540e-02	2.519620e-10	3	true	GAMG	2.076990e-02	4.726110e-05	3	true	DILUPBiCGStab	8.248340e-03	3.481800e-10	3	true
52            	DILUPBiCGStab	9.091730e-03	9.240970e-09	3	2.400160e-02	8.648480e-09	4	false	DILUPBiCGStab	1.314320e-02	2.627000e-10	3	true	GAMG	2.104510e-02	4.820950e-05	3	true	DILUPBiCGStab	8.235940e-03	3.109830e-10	3	true
53            	DILUPBiCGStab	9.102240e-03	9.092410e-09	3	2.432580e-02	9.756260e-09	4	false	DILUPBiCGStab	1.302930e-02	2.887070e-10	3	true	GAMG	2.079960e-02	4.920730e-05	3	true	DILUPBiCGStab	8.198060e-03	2.250570e-10	3	true
54            	DILUPBiCGStab	9.122520e-03	9.009370e-09	3	2.471950e-02	7.831690e-09	4	false	DILUPBiCGStab	1.286330e-02	2.788520e-10	3	true	GAMG	2.087850e-02	5.001570e-05	3	true	DILUPBiCGStab	8.181740e-03	2.082210e-10	3	true
55            	DILUPBiCGStab	9.135030e-03	8.911650e-09	3	2.507700e-02	8.104980e-09	4	false	DILUPBiCGStab	1.277790e-02	2.885930e-10	3	true	GAMG	2.083490e-02	5.214140e-05	3	true	DILUPBiCGStab	8.237740e-03	6.973320e-10	3	true
56            	DILUPBiCGStab	9.154440e-03	8.829580e-09	3	2.547540e-02	6.619890e-09	4	false	DILUPBiCGStab	1.265360e-02	2.751900e-10	3	true	GAMG	2.088780e-02	5.214280e-05	3	true	DILUPBiCGStab	8.230620e-03	2.464830e-10	3	true
57            	DILUPBiCGStab	9.162700e-03	8.733990e-09	3	2.587390e-02	6.677070e-09	4	false	DILUPBiCGStab	1.259000e-02	2.760600e-10	3	true	GAMG	2.081560e-02	5.446220e-05	3	true	DILUPBiCGStab	8.252480e-03	8.175820e-10	3	true
58            	DILUPBiCGStab	9.178590e-03	8.609050e-09	3	2.627520e-02	5.550750e-09	4	false	DILUPBiCGStab	1.248770e-02	2.723010e-10	3	true	GAMG	2.083750e-02	5.441940e-05	3	true	DILUPBiCGStab	8.252370e-03	5.800570e-10	3	true
59            	DILUPBiCGStab	9.181730e-03	8.463550e-09	3	2.670050e-02	5.531170e-09	4	false	DILUPBiCGStab	1.242370e-02	2.797400e-10	3	true	GAMG	2.080170e-02	5.763530e-05	3	true	DILUPBiCGStab	8.239740e-03	1.470500e-10	3	true
60            	DILUPBiCGStab	9.192750e-03	8.268910e-09	3	2.716470e-02	4.658550e-09	4	false	DILUPBiCGStab	1.225360e-02	2.849430e-10	3	true	GAMG	2.085200e-02	5.617360e-05	3	true	DILUPBiCGStab	8.231340e-03	1.552040e-10	3	true
61            	DILUPBiCGStab	9.200980e-03	8.141760e-09	3	2.758870e-02	4.431140e-09	4	false	DILUPBiCGStab	1.223030e-02	3.048470e-10	3	true	GAMG	2.077180e-02	5.895040e-05	3	true	DILUPBiCGStab	8.276110e-03	1.141830e-10	3	true
62            	DILUPBiCGStab	9.204110e-03	8.060990e-09	3	2.812560e-02	4.031950e-09	4	false	DILUPBiCGStab	1.214120e-02	3.250290e-10	3	true	GAMG	2.082740e-02	5.925600e-05	3	true	DILUPBiCGStab	8.252580e-03	1.083300e-10	3	true
63            	DILUPBiCGStab	9.205040e-03	7.969930e-09	3	2.857950e-02	3.538520e-09	4	false	DILUPBiCGStab	1.209920e-02	3.662070e-10	3	true	GAMG	2.081990e-02	5.898060e-05	3	true	DILUPBiCGStab	8.236620e-03	1.092120e-10	3	true
64            	DILUPBiCGStab	9.199630e-03	7.966540e-09	3	2.907190e-02	3.418800e-09	4	false	DILUPBiCGStab	1.202940e-02	3.906140e-10	3	true	GAMG	2.062620e-02	5.904740e-05	3	true	DILUPBiCGStab	8.274800e-03	1.169030e-10	3	true
65            	DILUPBiCGStab	9.196160e-03	7.934530e-09	3	2.960610e-02	3.202130e-09	4	false	DILUPBiCGStab	1.203080e-02	4.231940e-10	3	true	GAMG	2.052960e-02	5.831810e-05	3	true	DILUPBiCGStab	8.255040e-03	1.227560e-10	3	true
66            	DILUPBiCGStab	9.177620e-03	7.855080e-09	3	3.008830e-02	2.967690e-09	4	false	DILUPBiCGStab	1.202130e-02	4.614230e-10	3	true	GAMG	2.035610e-02	5.924890e-05	3	true	DILUPBiCGStab	8.193300e-03	1.229700e-10	3	true
67            	DILUPBiCGStab	9.159200e-03	7.871830e-09	3	3.071290e-02	2.874730e-09	4	false	DILUPBiCGStab	1.196370e-02	4.764960e-10	3	true	GAMG	2.047250e-02	5.927000e-05	3	true	DILUPBiCGStab	8.165660e-03	1.283510e-10	3	true
68            	DILUPBiCGStab	9.141140e-03	7.767180e-09	3	3.126980e-02	2.818180e-09	4	false	DILUPBiCGStab	1.199190e-02	5.032680e-10	3	true	GAMG	2.019180e-02	5.928980e-05	3	true	DILUPBiCGStab	8.170610e-03	1.301500e-10	3	true
69            	DILUPBiCGStab	9.116960e-03	7.720680e-09	3	3.175760e-02	2.692530e-09	4	false	DILUPBiCGStab	1.199210e-02	5.193950e-10	3	true	GAMG	1.987830e-02	5.974550e-05	3	true	DILUPBiCGStab	8.165160e-03	1.358120e-10	3	true
70            	DILUPBiCGStab	9.095200e-03	7.726550e-09	3	3.226950e-02	2.595560e-09	4	false	DILUPBiCGStab	1.201730e-02	5.339350e-10	3	true	GAMG	1.981030e-02	5.875570e-05	3	true	DILUPBiCGStab	8.134290e-03	1.391470e-10	3	true
71            	DILUPBiCGStab	9.060720e-03	7.647950e-09	3	3.280060e-02	2.500470e-09	4	false	DILUPBiCGStab	1.202360e-02	5.384200e-10	3	true	GAMG	1.931220e-02	5.756600e-05	3	true	DILUPBiCGStab	8.155100e-03	1.486560e-10	3	true
72            	DILUPBiCGStab	9.038550e-03	7.630540e-09	3	3.329600e-02	2.434220e-09	4	false	DILUPBiCGStab	1.201990e-02	5.563890e-10	3	true	GAMG	1.923490e-02	5.884930e-05	3	true	DILUPBiCGStab	8.148930e-03	1.518920e-10	3	true
73            	DILUPBiCGStab	9.016980e-03	7.614260e-09	3	3.383090e-02	2.309200e-09	4	false	DILUPBiCGStab	1.206970e-02	5.781460e-10	3	true	GAMG	1.897400e-02	6.031370e-05	3	true	DILUPBiCGStab	8.174880e-03	1.546180e-10	3	true
74            	DILUPBiCGStab	8.992050e-03	7.516650e-09	3	3.437750e-02	2.248760e-09	4	false	DILUPBiCGStab	1.211470e-02	5.970840e-10	3	true	GAMG	1.901220e-02	6.239620e-05	3	true	DILUPBiCGStab	8.169740e-03	1.624050e-10	3	true
75            	DILUPBiCGStab	8.962610e-03	7.382720e-09	3	3.487730e-02	2.189780e-09	4	false	DILUPBiCGStab	1.212520e-02	6.242520e-10	3	true	GAMG	1.883280e-02	6.557960e-05	3	true	DILUPBiCGStab	8.186280e-03	1.654380e-10	3	true
76            	DILUPBiCGStab	8.942690e-03	7.192380e-09	3	3.532750e-02	2.138800e-09	4	false	DILUPBiCGStab	1.217970e-02	6.534770e-10	3	true	GAMG	1.865600e-02	6.664390e-05	3	true	DILUPBiCGStab	8.220890e-03	1.694560e-10	3	true
77            	DILUPBiCGStab	8.929000e-03	7.115110e-09	3	3.571820e-02	2.085030e-09	4	false	DILUPBiCGStab	1.224660e-02	6.912980e-10	3	true	GAMG	1.863240e-02	6.499010e-05	3	true	DILUPBiCGStab	8.291620e-03	1.701190e-10	3	true
78            	DILUPBiCGStab	8.911870e-03	7.017890e-09	3	3.609230e-02	2.031070e-09	4	false	DILUPBiCGStab	1.229300e-02	7.168410e-10	3	true	GAMG	1.876340e-02	6.279350e-05	3	true	DILUPBiCGStab	8.316780e-03	1.767390e-10	3	true
79            	DILUPBiCGStab	8.892090e-03	6.958670e-09	3	3.639260e-02	1.951500e-09	4	false	DILUPBiCGStab	1.234700e-02	7.440120e-10	3	true	GAMG	1.869290e-02	6.311300e-05	3	true	DILUPBiCGStab	8.369180e-03	1.891730e-10	3	true
80            	DILUPBiCGStab	8.878810e-03	6.830870e-09	3	3.666520e-02	1.863030e-09	4	false	DILUPBiCGStab	1.240270e-02	7.774900e-10	3	true	GAMG	1.862910e-02	6.055850e-05	3	true	DILUPBiCGStab	8.394280e-03	1.978050e-10	3	true
81            	DILUPBiCGStab	8.867740e-03	6.769030e-09	3	3.691760e-02	1.764370e-09	4	false	DILUPBiCGStab	1.246990e-02	8.059920e-10	3	true	GAMG	1.859940e-02	5.879320e-05	3	true	DILUPBiCGStab	8.439190e-03	2.091180e-10	3	true
82            	DILUPBiCGStab	8.862350e-03	6.589590e-09	3	3.714790e-02	1.709640e-09	4	false	DILUPBiCGStab	1.253570e-02	8.290140e-10	3	true	GAMG	1.861770e-02	5.545320e-05	3	true	DILUPBiCGStab	8.445500e-03	2.238320e-10	3	true
83            	DILUPBiCGStab	8.852560e-03	6.496960e-09	3	3.731520e-02	1.629580e-09	4	false	DILUPBiCGStab	1.259040e-02	8.658420e-10	3	true	GAMG	1.865740e-02	5.218140e-05	3	true	DILUPBiCGStab	8.459310e-03	2.333670e-10	3	true
84            	DILUPBiCGStab	8.842780e-03	6.438690e-09	3	3.749500e-02	1.600780e-09	4	false	DILUPBiCGStab	1.262490e-02	8.997750e-10	3	true	GAMG	1.879760e-02	4.871760e-05	3	true	DILUPBiCGStab	8.463470e-03	2.513280e-10	3	true
85            	DILUPBiCGStab	8.832180e-03	6.680390e-09	3	3.766240e-02	1.542640e-09	4	false	DILUPBiCGStab	1.270390e-02	9.360440e-10	3	true	GAMG	1.895150e-02	4.454320e-05	3	true	DILUPBiCGStab	8.474280e-03	2.672540e-10	3	true
86            	DILUPBiCGStab	8.814700e-03	7.021420e-09	3	3.784850e-02	1.502090e-09	4	false	DILUPBiCGStab	1.271860e-02	9.797710e-10	3	true	GAMG	1.914080e-02	4.117850e-05	3	true	DILUPBiCGStab	8.482200e-03	2.857170e-10	3	true
87            	DILUPBiCGStab	8.792920e-03	7.222250e-09	3	3.808080e-02	1.457690e-09	4	false	DILUPBiCGStab	1.277370e-02	1.020270e-09	3	true	GAMG	1.921950e-02	3.982370e-05	3	true	DILUPBiCGStab	8.475500e-03	3.019620e-10	3	true
88            	DILUPBiCGStab	8.766890e-03	7.327630e-09	3	3.840900e-02	1.429300e-09	4	false	DILUPBiCGStab	1.277640e-02	1.047530e-09	3	true	GAMG	1.940880e-02	4.005490e-05	3	true	DILUPBiCGStab	8.483760e-03	3.251270e-10	3	true
89            	DILUPBiCGStab	8.738190e-03	7.260880e-09	3	3.886410e-02	1.390440e-09	4	false	DILUPBiCGStab	1.279630e-02	1.084010e-09	3	true	GAMG	1.957220e-02	4.192660e-05	3	true	DILUPBiCGStab	8.440360e-03	3.450060e-10	3	true
90            	DILUPBiCGStab	8.699580e-03	7.112690e-09	3	3.944890e-02	1.377320e-09	4	false	DILUPBiCGStab	1.271500e-02	1.123380e-09	3	true	GAMG	1.956680e-02	4.624140e-05	3	true	DILUPBiCGStab	8.389240e-03	3.720470e-10	3	true
91            	DILUPBiCGStab	8.656750e-03	6.788740e-09	3	4.015780e-02	1.352090e-09	4	false	DILUPBiCGStab	1.271550e-02	1.167720e-09	3	true	GAMG	1.964860e-02	4.880330e-05	3	true	DILUPBiCGStab	8.353820e-03	4.031900e-10	3	true
92            	DILUPBiCGStab	8.606250e-03	6.366910e-09	3	4.094550e-02	1.339610e-09	4	false	DILUPBiCGStab	1.265710e-02	1.205810e-09	3	true	GAMG	1.979200e-02	4.756860e-05	3	true	DILUPBiCGStab	8.329160e-03	4.111500e-10	3	true
93            	DILUPBiCGStab	8.539810e-03	6.017200e-09	3	4.168390e-02	1.337430e-09	4	false	DILUPBiCGStab	1.259610e-02	1.264480e-09	3	true	GAMG	1.987440e-02	4.684150e-05	3	true	DILUPBiCGStab	8.225300e-03	4.053780e-10	3	true
94            	DILUPBiCGStab	8.466180e-03	5.641450e-09	3	4.219230e-02	1.307910e-09	4	false	DILUPBiCGStab	1.254660e-02	1.311610e-09	3	true	GAMG	2.015550e-02	4.400390e-05	3	true	DILUPBiCGStab	8.143110e-03	4.421770e-10	3	true
95            	DILUPBiCGStab	8.382460e-03	5.401680e-09	3	4.248230e-02	1.303740e-09	4	false	DILUPBiCGStab	1.248250e-02	1.394870e-09	3	true	GAMG	2.041560e-02	4.415370e-05	3	true	DILUPBiCGStab	8.033780e-03	4.443550e-10	3	true
96            	DILUPBiCGStab	8.299380e-03	5.459010e-09	3	4.255520e-02	1.250090e-09	4	false	DILUPBiCGStab	1.238660e-02	1.428320e-09	3	true	GAMG	2.069310e-02	5.243290e-05	3	true	DILUPBiCGStab	7.965340e-03	4.469800e-10	3	true
97            	DILUPBiCGStab	8.216690e-03	5.801610e-09	3	4.248180e-02	1.226670e-09	4	false	DILUPBiCGStab	1.225590e-02	1.475400e-09	3	true	GAMG	2.077490e-02	5.960330e-05	3	true	DILUPBiCGStab	7.904960e-03	4.870000e-10	3	true
98            	DILUPBiCGStab	8.129860e-03	6.015080e-09	3	4.232690e-02	1.175970e-09	4	false	DILUPBiCGStab	1.215500e-02	1.534790e-09	3	true	GAMG	2.068690e-02	5.862880e-05	3	true	DILUPBiCGStab	7.804410e-03	4.981320e-10	3	true
99            	DILUPBiCGStab	8.053330e-03	6.140670e-09	3	4.211520e-02	1.123460e-09	4	false	DILUPBiCGStab	1.213210e-02	1.578320e-09	3	true	GAMG	2.043360e-02	6.094170e-05	3	true	DILUPBiCGStab	7.735740e-03	5.402570e-10	3	true
100           	DILUPBiCGStab	7.990160e-03	6.277900e-09	3	4.186340e-02	1.066300e-09	4	false	DILUPBiCGStab	1.205160e-02	1.643340e-09	3	true	GAMG	2.076950e-02	6.052480e-05	3	true	DILUPBiCGStab	7.629840e-03	5.920500e-10	3	true
101           	DILUPBiCGStab	7.945200e-03	6.310740e-09	3	4.170380e-02	1.043380e-09	4	false	DILUPBiCGStab	1.198260e-02	1.708650e-09	3	true	GAMG	2.095800e-02	5.750320e-05	3	true	DILUPBiCGStab	7.523850e-03	6.196090e-10	3	true
102           	DILUPBiCGStab	7.910960e-03	6.227630e-09	3	4.150810e-02	1.046310e-09	4	false	DILUPBiCGStab	1.185080e-02	1.752950e-09	3	true	GAMG	2.089300e-02	5.513710e-05	3	true	DILUPBiCGStab	7.397970e-03	6.883880e-10	3	true
103           	DILUPBiCGStab	7.890970e-03	6.097270e-09	3	4.130230e-02	1.042640e-09	4	false	DILUPBiCGStab	1.176290e-02	1.827590e-09	3	true	GAMG	2.042460e-02	5.747800e-05	3	true	DILUPBiCGStab	7.344960e-03	9.182860e-10	3	true
104           	DILUPBiCGStab	7.884830e-03	5.726470e-09	3	4.118120e-02	9.676930e-09	3	false	DILUPBiCGStab	1.163630e-02	1.872100e-09	3	true	GAMG	1.979120e-02	5.981020e-05	3	true	DILUPBiCGStab	7.259840e-03	3.300740e-09	3	true
105           	DILUPBiCGStab	7.892400e-03	5.281040e-09	3	4.108870e-02	9.360980e-09	3	false	DILUPBiCGStab	1.162990e-02	1.979010e-09	3	true	GAMG	1.891060e-02	5.917700e-05	3	true	DILUPBiCGStab	7.211820e-03	5.851090e-09	3	true
106           	DILUPBiCGStab	7.908240e-03	4.747890e-09	3	4.106300e-02	9.120960e-09	3	false	DILUPBiCGStab	1.151740e-02	2.004570e-09	3	true	GAMG	1.848910e-02	5.821690e-05	3	true	DILUPBiCGStab	7.113090e-03	9.293750e-09	3	true
107           	DILUPBiCGStab	7.927470e-03	4.252810e-09	3	4.104930e-02	8.926740e-09	3	false	DILUPBiCGStab	1.146640e-02	2.177740e-09	3	true	GAMG	1.802700e-02	5.774250e-05	3	true	DILUPBiCGStab	7.058170e-03	1.243360e-10	4	true
108           	DILUPBiCGStab	7.952960e-03	3.869340e-09	3	4.104340e-02	8.850410e-09	3	false	DILUPBiCGStab	1.137680e-02	2.290700e-09	3	true	GAMG	1.763370e-02	5.783490e-05	3	true	DILUPBiCGStab	6.990680e-03	5.602110e-09	3	true
109           	DILUPBiCGStab	7.984760e-03	3.588340e-09	3	4.105930e-02	8.854170e-09	3	false	DILUPBiCGStab	1.133870e-02	2.465220e-09	3	true	GAMG	1.719890e-02	5.800700e-05	3	true	DILUPBiCGStab	6.940420e-03	8.132750e-09	3	true
110           	DILUPBiCGStab	8.019690e-03	3.315330e-09	3	4.106010e-02	8.543680e-09	3	false	DILUPBiCGStab	1.126380e-02	2.522940e-09	3	true	GAMG	1.673050e-02	5.675130e-05	3	true	DILUPBiCGStab	6.834770e-03	3.832150e-09	3	true
111           	DILUPBiCGStab	8.053090e-03	3.083090e-09	3	4.104760e-02	8.166290e-09	3	false	DILUPBiCGStab	1.125950e-02	2.504000e-09	3	true	GAMG	1.647070e-02	5.574860e-05	3	true	DILUPBiCGStab	6.795780e-03	5.543230e-09	3	true
112           	DILUPBiCGStab	8.084570e-03	2.943650e-09	3	4.097870e-02	7.838590e-09	3	false	DILUPBiCGStab	1.115080e-02	2.655040e-09	3	true	GAMG	1.624190e-02	5.489680e-05	3	true	DILUPBiCGStab	6.712300e-03	7.903820e-09	3	true
113           	DILUPBiCGStab	8.116830e-03	2.817000e-09	3	4.088430e-02	7.732480e-09	3	false	DILUPBiCGStab	1.112390e-02	2.769140e-09	3	true	GAMG	1.596540e-02	5.124200e-05	3	true	DILUPBiCGStab	6.659680e-03	2.801010e-09	3	true
114           	DILUPBiCGStab	8.147760e-03	2.693320e-09	3	4.079040e-02	7.492860e-09	3	false	DILUPBiCGStab	1.103420e-02	2.860220e-09	3	true	GAMG	1.580850e-02	5.077750e-05	3	true	DILUPBiCGStab	6.541470e-03	9.997910e-09	3	true
115           	DILUPBiCGStab	8.173810e-03	2.577210e-09	3	4.066190e-02	7.383020e-09	3	false	DILUPBiCGStab	1.096880e-02	2.940320e-09	3	true	GAMG	1.543210e-02	5.131190e-05	3	true	DILUPBiCGStab	6.468270e-03	5.181150e-09	3	true
116           	DILUPBiCGStab	8.196990e-03	2.483010e-09	3	4.048100e-02	7.109740e-09	3	false	DILUPBiCGStab	1.089230e-02	3.243410e-09	3	true	GAMG	1.529870e-02	4.958330e-05	3	true	DILUPBiCGStab	6.379240e-03	3.737600e-09	3	true
117           	DILUPBiCGStab	8.217630e-03	2.388340e-09	3	4.025650e-02	6.851650e-09	3	false	DILUPBiCGStab	1.086480e-02	3.008370e-09	3	true	GAMG	1.508220e-02	4.867360e-05	3	true	DILUPBiCGStab	6.327940e-03	2.789160e-09	3	true
118           	DILUPBiCGStab	8.238170e-03	2.314890e-09	3	4.002970e-02	6.700420e-09	3	false	DILUPBiCGStab	1.076390e-02	2.937640e-09	3	true	GAMG	1.479260e-02	4.744970e-05	3	true	DILUPBiCGStab	6.245310e-03	1.727830e-09	3	true
119           	DILUPBiCGStab	8.254460e-03	2.245890e-09	3	3.973540e-02	6.582540e-09	3	false	DILUPBiCGStab	1.075550e-02	3.063950e-09	3	true	GAMG	1.461510e-02	4.290670e-05	3	true	DILUPBiCGStab	6.157990e-03	3.481450e-11	4	true
120           	DILUPBiCGStab	8.260100e-03	2.168220e-09	3	3.937070e-02	6.388980e-09	3	false	DILUPBiCGStab	1.065100e-02	2.954070e-09	3	true	GAMG	1.438890e-02	3.946930e-05	3	true	DILUPBiCGStab	6.075490e-03	5.531680e-09	3	true
121           	DILUPBiCGStab	8.263130e-03	2.101140e-09	3	3.897190e-02	6.232690e-09	3	false	DILUPBiCGStab	1.058490e-02	3.101730e-09	3	true	GAMG	1.428420e-02	3.808800e-05	3	true	DILUPBiCGStab	6.036480e-03	1.162460e-09	3	true
122           	DILUPBiCGStab	8.262670e-03	2.022670e-09	3	3.850780e-02	5.967910e-09	3	false	DILUPBiCGStab	1.049910e-02	2.815940e-09	3	true	GAMG	1.411350e-02	3.829360e-05	3	true	DILUPBiCGStab	5.920250e-03	2.610060e-11	4	true
123           	DILUPBiCGStab	8.249220e-03	1.973700e-09	3	3.796240e-02	5.808920e-09	3	false	DILUPBiCGStab	1.042580e-02	2.932880e-09	3	true	GAMG	1.369980e-02	3.477750e-05	3	true	DILUPBiCGStab	5.841020e-03	8.534000e-10	3	true
124           	DILUPBiCGStab	8.229500e-03	1.903930e-09	3	3.735950e-02	5.713460e-09	3	false	DILUPBiCGStab	1.032720e-02	2.880480e-09	3	true	GAMG	1.351470e-02	3.026830e-05	3	true	DILUPBiCGStab	5.767790e-03	2.503970e-09	3	true
125           	DILUPBiCGStab	8.204910e-03	1.825830e-09	3	3.670670e-02	5.440530e-09	3	false	DILUPBiCGStab	1.025150e-02	2.574370e-09	3	true	GAMG	1.338290e-02	2.780350e-05	3	true	DILUPBiCGStab	5.705380e-03	1.711360e-09	3	true
126           	DILUPBiCGStab	8.162940e-03	1.778920e-09	3	3.601300e-02	5.287660e-09	3	false	DILUPBiCGStab	1.018960e-02	2.508410e-09	3	true	GAMG	1.319730e-02	2.688060e-05	3	true	DILUPBiCGStab	5.591900e-03	2.006710e-09	3	true
127           	DILUPBiCGStab	8.110730e-03	1.721280e-09	3	3.530190e-02	5.160280e-09	3	false	DILUPBiCGStab	1.005680e-02	2.479160e-09	3	true	GAMG	1.294820e-02	2.636910e-05	3	true	DILUPBiCGStab	5.517660e-03	2.072420e-09	3	true
128           	DILUPBiCGStab	8.052080e-03	1.646670e-09	3	3.456400e-02	4.937200e-09	3	false	DILUPBiCGStab	9.958940e-03	2.566020e-09	3	true	GAMG	1.264150e-02	2.520210e-05	3	true	DILUPBiCGStab	5.456670e-03	6.489250e-10	3	true
129           	DILUPBiCGStab	7.977740e-03	1.580790e-09	3	3.381140e-02	4.937550e-09	3	false	DILUPBiCGStab	9.866720e-03	2.344010e-09	3	true	GAMG	1.228780e-02	2.453360e-05	3	true	DILUPBiCGStab	5.380870e-03	8.262270e-09	3	true
130           	DILUPBiCGStab	7.890680e-03	1.506060e-09	3	3.304030e-02	4.669600e-09	3	false	DILUPBiCGStab	9.743440e-03	2.452870e-09	3	true	GAMG	1.202190e-02	2.549170e-05	3	true	DILUPBiCGStab	5.283680e-03	4.623360e-09	3	true
131           	DILUPBiCGStab	7.788560e-03	1.424970e-09	3	3.225340e-02	4.415520e-09	3	false	DILUPBiCGStab	9.656660e-03	2.430270e-09	3	true	GAMG	1.177520e-02	2.678910e-05	3	true	DILUPBiCGStab	5.204980e-03	1.489520e-09	3	true
132           	DILUPBiCGStab	7.677240e-03	1.323350e-09	3	3.146360e-02	4.277660e-09	3	false	DILUPBiCGStab	9.518120e-03	2.610870e-09	3	true	GAMG	1.151420e-02	2.478140e-05	3	true	DILUPBiCGStab	5.129400e-03	7.707420e-10	3	true